
                                 *****************
                                 * O   R   C   A *
                                 *****************

                                            #,                                       
                                            ###                                      
                                            ####                                     
                                            #####                                    
                                            ######                                   
                                           ########,                                 
                                     ,,################,,,,,                         
                               ,,#################################,,                 
                          ,,##########################################,,             
                       ,#########################################, ''#####,          
                    ,#############################################,,   '####,        
                  ,##################################################,,,,####,       
                ,###########''''           ''''###############################       
              ,#####''   ,,,,##########,,,,          '''####'''          '####       
            ,##' ,,,,###########################,,,                        '##       
           ' ,,###''''                  '''############,,,                           
         ,,##''                                '''############,,,,        ,,,,,,###''
      ,#''                                            '''#######################'''  
     '                                                          ''''####''''         
             ,#######,   #######,   ,#######,      ##                                
            ,#'     '#,  ##    ##  ,#'     '#,    #''#        ,####,    ,#,          
            ##       ##  ##   ,#'  ##            #'  '#       #'       ,# #          
            ##       ##  #######   ##           ,######,      #####,      #          
            '#,     ,#'  ##    ##  '#,     ,#' ,#      #,     #,   #      #          
             '#######'   ##     ##  '#######'  #'      '#     '####' #    #          



                #########################################################
                #                        -***-                          #
                #          Department of theory and spectroscopy        #
                #                                                       #
                #                      Frank Neese                      #
                #                                                       #
                #     Directorship, Architecture, Infrastructure        #
                #                    SHARK, DRIVERS                     #
                #        Core code/Algorithms in most modules           #
                #                                                       #
                #        Max Planck Institute fuer Kohlenforschung      #
                #                Kaiser Wilhelm Platz 1                 #
                #                 D-45470 Muelheim/Ruhr                 #
                #                      Germany                          #
                #                                                       #
                #                  All rights reserved                  #
                #                        -***-                          #
                #########################################################


                         Program Version 6.1.0  -  RELEASE   -
                                (GIT: $679e74b$)
                          ($2025-06-10 18:02:51 +0200$)


 With contributions from (in alphabetic order):
[Max-Planck-Institut fuer Kohlenforschung]                               
  Daniel Aravena         : Magnetic Suceptibility                        
  Michael Atanasov       : Ab Initio Ligand Field Theory (pilot matlab implementation)
  Alexander A. Auer      : GIAO ZORA, VPT2 properties, NMR spectrum      
  Ute Becker             : All parallelization in ORCA, NUMFREQ, NUMCALC 
  Giovanni Bistoni       : ED, misc. LED, open-shell LED, HFLD           
  Dmytro Bykov           : pre 5.0 version of the SCF Hessian            
  Marcos Casanova-Páez   : Triplet and SCS-CIS(D). UHF-(DLPNO)-IP/EA/STEOM-CCSD. UHF-CVS-IP/STEOM-CCSD   
  Vijay G. Chilkuri      : MRCI spin determinant printing, contributions to CSF-ICE 
  Pauline Colinet        : FMM embedding                                 
  Dipayan Datta          : RHF DLPNO-CCSD density                        
  Achintya Kumar Dutta   : EOM-CC, STEOM-CC                              
  Nicolas Foglia         : Exact transition moments, OPA infrastructure, MCD improvements    
  Dmitry Ganyushin       : Spin-Orbit,Spin-Spin,Magnetic field MRCI      
  Miquel Garcia-Rates    : C-PCM and meta-GGA Hessian, CCSD/C-PCM, Gaussian charge scheme 
  Tiago L. C. Gouveia    : GS-ROHF, GS-ROCIS                             
  Yang Guo               : DLPNO-NEVPT2, F12-NEVPT2, CIM, IAO-localization        
  Andreas Hansen         : Spin unrestricted coupled pair/coupled cluster methods 
  Ingolf Harden          : AUTO-CI MPn and infrastructure                
  Benjamin Helmich-Paris : MC-RPA, TRAH-(SCF,CASSCF), AVAS, COSX integrals, SCF dyn. polar., MC-PDFT, srDFT 
  Lee Huntington         : MR-EOM, pCC                                   
  Robert Izsak           : Overlap fitted RIJCOSX, COSX-SCS-MP3, EOM     
  Riya Kayal             : Wick's Theorem for AUTO-CI, AUTO-CI UHF-CCSDT 
  Emily Kempfer          : AUTO-CI RHF CISDT and CCSDT, approximate NEVPT4
  Christian Kollmar      : KDIIS, OOCD, Brueckner-CCSD(T), CCSD density, CASPT2, CASPT2-K, improved NEVPT2 
  Axel Koslowski         : Symmetry handling                             
  Simone Kossmann        : meta-GGA functionals, TD-DFT gradient, OOMP2, (MP2 Hessian; deprecated post 5.0) 
  Lucas Lang             : DCDCAS, Hyperfine gauge corrections, ICE-SOC+SSC
  Marvin Lechner         : AUTO-CI (C++ implementation), FIC-MRCC        
  Spencer Leger          : CASSCF response                               
  Dagmar Lenk            : GEPOL surface, SMD, ORCA-2-JSON               
  Dimitrios Liakos       : Extrapolation schemes; Compound Job, Property file
  Dimitrios Manganas     : Further ROCIS development; embedding schemes. LFT, Crystal Embedding 
  Dimitrios Pantazis     : SARC Basis sets                               
  Anastasios Papadopoulos: AUTO-CI, single reference methods and gradients 
  Taras Petrenko         : pre 6.0 DFT Hessian and TD-DFT gradient,  ECA, NRVS 
  Petra Pikulova         : Analytic Raman intensities                    
  Peter Pinski           : DLPNO-MP2, DLPNO-MP2 Gradient                 
  Shashank Vittal Rao    : ES-AILFT, MagRelax                            
  Christoph Reimann      : Effective Core Potentials                     
  Marius Retegan         : Local ZFS, SOC                                
  Christoph Riplinger    : Optimizer, TS searches, QM/MM, DLPNO-CCSD(T), (RO)-DLPNO pert. Triples 
  Michael Roemelt        : Original ROCIS implementation, recursive CI coupling coefficients
  Masaaki Saitow         : Open-shell DLPNO-CCSD energy and density      
  Barbara Sandhoefer     : DKH picture change effects                    
  Yorick L. A. Schmerwitz: GMF and freeze-and-release deltaSCF, NEB S-IDPP initial path                    
  Kantharuban Sivalingam : CASSCF convergence/infrastructure, NEVPT2, NEVPT3, NEVPT4(SD), FIC-MRCI and CEPA variants
  Bernardo de Souza      : ESD, SOC TD-DFT                               
  Georgi L. Stoychev     : AutoAux, RI-MP2 NMR, DLPNO-MP2 response, X2C  
  Van Anh Tran           : RI-MP2 g-tensors                              
  Willem Van den Heuvel  : Paramagnetic NMR                              
  Zikuan Wang            : NOTCH, Electric field optimization            
  Frank Wennmohs         : Technical directorship and infrastructure     
  Hang Xu                : AUTO-CI-Response properties                   
                                                                         
[FACCTs GmbH]                                                            
  Markus Bursch, Nicolas Foglia, Miquel Garcia-Rates, Ingolf Harden, Hagen Neugebauer, Anastasios Papadopoulos, 
  Christoph Riplinger, Bernardo de Souza, Georgi L. Stoychev                                                    
                                                                 
  APM, various basis sets, CI-OPT, improved COSX, DLPNO-Multilevel,           
  DOCKER, DRACO, updates on ESD, Fragmentator, GOAT, IRC, LR-CPCM, L-BFGS, MBIS, meta-GGA TD-DFT gradient, ML-optimized integration grids, 
  MM, NACMEs, nearIR, NEB, NEB-TS, NL-DFT gradient (VV10), 2- and 3-layer-ONIOM, interface openCOSMO-RS, QMMM,   
  Crystal-QMMM, RESP, rigid body optimization, SF, symmetry and pop. for TD-DFT, various functionals, SOLVATOR                                   
                                                                         
[Other institutions]                                                     
  V. Asgeirsson          : NEB                                           
  Christoph Bannwarth    : sTDA-DFT, sTD-DFT, PBEh-3c, B97-3c, D3        
  Giovanni Bistoni       : ETS/NOCV, ADLD/ADEX, COVALED                  
  Martin Brehm           : Molecular dynamics                            
  Ronald Cardenas        : ETS/NOCV                                      
  Martina Colucci        : COVALED                                       
  Sebastian Ehlert       : rSCAN, r2SCAN, r2SCAN-3c, D4, dhf basis sets  
  Marvin Friede          : D4 for Fr, Ra, Ac-Lr                          
  Lars Goerigk           : TD-DFT with DH, B97 family of functionals     
  Stefan Grimme          : VdW corrections, initial TS optimization, DFT functionals, gCP, sTDA/sTD-DF 
  Waldemar Hujo          : DFT-NL                                        
  H. Jonsson             : NEB                                           
  Holger Kruse           : gCP                                           
  Marcel Mueller         : wB97X-3c, vDZP basis set                      
  Hagen Neugebauer       : wr2SCAN, Native XTB                           
  Gianluca Regni         : ADLD/ADEX                                     
  Tobias Risthaus        : pre 6.0 range-separated hybrid DFT and stability analysis
  Lukas Wittmann         : regularized MP2, r2SCAN double-hybrids, wr2SCAN        
                                                                         
We gratefully acknowledge several colleagues who have allowed us to      
interface, adapt or use parts of their codes:                            
  Ed Valeev, F. Pavosevic, A. Kumar             : LibInt (2-el integral package), F12 methods 
  Garnet Chan, S. Sharma, J. Yang, R. Olivares  : DMRG                   
  Ulf Ekstrom                                   : XCFun DFT Library      
  Mihaly Kallay                                 : mrcc  (arbitrary order and MRCC methods)
  Frank Weinhold                                : gennbo (NPA and NBO analysis)           
  Simon Mueller                                 : openCOSMO-RS                            
  Christopher J. Cramer and Donald G. Truhlar   : smd solvation model                     
  S Lehtola, MJT Oliveira, MAL Marques          : LibXC Library                           
  Liviu Ungur et al                             : ANISO software                          


 Your calculation uses the libint2 library for the computation of 2-el integrals
 For citations please refer to: http://libint.valeyev.net

 Your ORCA version has been built with support for libXC version: 7.0.0
 For citations please refer to: https://libxc.gitlab.io

 This ORCA versions uses:
   CBLAS   interface :  Fast vector & matrix operations
   LAPACKE interface :  Fast linear algebra routines
   SCALAPACK package :  Parallel linear algebra routines
   Shared memory     :  Shared parallel matrices
   BLAS/LAPACK       :  OpenBLAS 0.3.29  USE64BITINT DYNAMIC_ARCH NO_AFFINITY Zen SINGLE_THREADED
        Core in use  :  Zen
   Copyright (c) 2011-2014, The OpenBLAS Project


  ***********************************
  * Starting time: Tue Sep 23 15:41:18 2025
  * Host name:     node3518.doduo.os
  * Process ID:    3983295
  * Working dir.:  /kyukon/scratch/gent/489/vsc48948/Master_thesis
  ***********************************

Warning: RI is on but no J-basis has been assigned. Assigning Def2/J (nothing to worry about!)
================================================================================

----- Orbital basis set information -----
Your calculation utilizes the basis: def2-SVP
   F. Weigend and R. Ahlrichs, Phys. Chem. Chem. Phys. 7, 3297 (2005).

----- AuxJ basis set information -----
Your calculation utilizes the auxiliary basis: def2/J
   H-Rn: F. Weigend, Phys. Chem. Chem. Phys. 8, 1057 (2006).
   Fr-Lr: K. Eichkorn, F. Weigend, O. Treutler, R. Ahlrichs; Theor. Chem. Acc. 97, 119 (1997).

================================================================================
                                        WARNINGS
                       Please study these warnings very carefully!
================================================================================


================================================================================
                                       INPUT FILE
================================================================================
NAME = calc.inp
|  1> ! B3LYP def2-SVP SP
|  2> 
|  3> * xyz 0 1
|  4> Zn    7.240619    1.321008    4.364157
|  5> Zn    3.096856    5.340992   13.092472
|  6> Zn   -2.071881    4.652008    4.364157
|  7> Zn   16.553119    4.652008    4.364157
|  8> Zn   -6.215644    2.009992   13.092472
|  9> Zn   12.409356    2.009992   13.092472
| 10> Cl   11.421819    0.109590    7.307519
| 11> Cl   -1.084344    6.552410   10.149109
| 12> Cl    3.059418    0.109590    1.420795
| 13> Cl    7.278057    6.552410   16.035834
| 14> Cl    2.109319    3.440590    7.307519
| 15> Cl    8.228156    3.221410   10.149109
| 16> Cl   12.371918    3.440590    1.420795
| 17> Cl   -2.034443    3.221410   16.035834
| 18>  N    8.668194    2.468937    5.123346
| 19>  N    1.669281    4.193063   12.333283
| 20>  N    5.813043    2.468937    3.604968
| 21>  N    4.524432    4.193063   13.851660
| 22>  N   -0.644306    5.799937    5.123346
| 23>  N   10.981781    0.862063   12.333283
| 24>  N   15.125543    5.799937    3.604968
| 25>  N   -4.788068    0.862063   13.851660
| 26>  N    9.887437    3.624794    6.516734
| 27>  N    0.450039    3.037206   10.939895
| 28>  N    4.593801    3.624794    2.211580
| 29>  N    5.743674    3.037206   15.245048
| 30>  N    0.574937    0.293794    6.516734
| 31>  N    9.762539    6.368206   10.939895
| 32>  N   13.906301    0.293794    2.211580
| 33>  N   -3.568826    6.368206   15.245048
| 34>  N    8.109663    0.222511    2.952614
| 35>  N    2.227812    6.439489   14.504015
| 36>  N    6.371575    0.222511    5.775700
| 37>  N    3.965901    6.439489   11.680929
| 38>  N   -1.202837    3.553511    2.952614
| 39>  N   11.540312    3.108489   14.504015
| 40>  N   15.684075    3.553511    5.775700
| 41>  N   -5.346599    3.108489   11.680929
| 42>  N    9.654308    5.842574    1.819854
| 43>  N    0.683167    0.819426   15.636775
| 44>  N    4.826930    5.842574    6.908461
| 45>  N    5.510546    0.819426   10.548168
| 46>  N    0.341808    2.511574    1.819854
| 47>  N    9.995667    4.150426   15.636775
| 48>  N   14.139430    2.511574    6.908461
| 49>  N   -3.801954    4.150426   10.548168
| 50>  O   12.294606    5.650709    7.236471
| 51>  O   -1.957130    1.011292   10.220158
| 52>  O    2.186632    5.650709    1.491843
| 53>  O    8.150843    1.011292   15.964785
| 54>  O    2.982106    2.319708    7.236471
| 55>  O    7.355370    4.342292   10.220158
| 56>  O   11.499132    2.319708    1.491843
| 57>  O   -1.161657    4.342292   15.964785
| 58>  O   10.197176    6.384861    7.915708
| 59>  O    0.140300    0.277139    9.540920
| 60>  O    4.284062    6.384861    0.812606
| 61>  O    6.053413    0.277139   16.644023
| 62>  O    0.884676    3.053861    7.915708
| 63>  O    9.452800    3.608139    9.540920
| 64>  O   13.596562    3.053861    0.812606
| 65>  O   -3.259087    3.608139   16.644023
| 66>  O   12.003091    1.149195    8.111397
| 67>  O   -1.665616    5.512805    9.345232
| 68>  O    2.478146    1.149195    0.616917
| 69>  O    7.859329    5.512805   16.839711
| 70>  O    2.690591    4.480195    8.111397
| 71>  O    7.646884    2.181805    9.345232
| 72>  O   11.790646    4.480195    0.616917
| 73>  O   -1.453171    2.181805   16.839711
| 74>  O   11.195849    0.585590    5.987100
| 75>  O   -0.858374    6.076410   11.469529
| 76>  O    3.285389    0.585590    2.741214
| 77>  O    7.052087    6.076410   14.715414
| 78>  O    1.883349    3.916590    5.987100
| 79>  O    8.454126    2.745410   11.469529
| 80>  O   12.597889    3.916590    2.741214
| 81>  O   -2.260413    2.745410   14.715414
| 82>  C    9.605864    3.199759    4.411116
| 83>  C    0.731611    3.462241   13.045513
| 84>  C    4.875374    3.199759    4.317199
| 85>  C    5.462102    3.462241   13.139430
| 86>  C    0.293364    6.530759    4.411116
| 87>  C   10.044111    0.131241   13.045513
| 88>  C   14.187874    6.530759    4.317199
| 89>  C   -3.850398    0.131241   13.139430
| 90>  H    9.701276    3.194429    3.465141
| 91>  H    0.636199    3.467571   13.991488
| 92>  H    4.779961    3.194429    5.263174
| 93>  H    5.557514    3.467571   12.193455
| 94>  H    0.388776    6.525429    3.465141
| 95>  H    9.948699    0.136571   13.991488
| 96>  H   14.092461    6.525429    5.263174
| 97>  H   -3.754986    0.136571   12.193455
| 98>  C   10.358835    3.913925    5.257413
| 99>  C   -0.021360    2.748075   12.199216
|100>  C    4.122403    3.913925    3.470901
|101>  C    6.215073    2.748075   13.985727
|102>  C    1.046335    0.582925    5.257413
|103>  C    9.291140    6.079075   12.199216
|104>  C   13.434903    0.582925    3.470901
|105>  C   -3.097427    6.079075   13.985727
|106>  H   11.072028    4.500847    5.034492
|107>  H   -0.734553    2.161153   12.422137
|108>  H    3.409210    4.500847    3.693823
|109>  H    6.928266    2.161153   13.762806
|110>  H    1.759528    1.169847    5.034492
|111>  H    8.577947    5.492153   12.422137
|112>  H   12.721710    1.169847    3.693823
|113>  H   -2.384234    5.492153   13.762806
|114>  C    8.885166    2.753405    6.401520
|115>  C    1.452310    3.908596   11.055108
|116>  C    5.596072    2.753405    2.326794
|117>  C    4.741403    3.908596   15.129835
|118>  C   -0.427334    6.084405    6.401520
|119>  C   10.764810    0.577595   11.055108
|120>  C   14.908572    6.084405    2.326794
|121>  C   -4.571097    0.577595   15.129835
|122>  H    8.397550    2.388993    7.129287
|123>  H    1.939925    4.273007   10.327342
|124>  H    6.083688    2.388993    1.599027
|125>  H    4.253788    4.273007   15.857602
|126>  H   -0.914950    5.719993    7.129287
|127>  H   11.252425    0.942007   10.327342
|128>  H   15.396188    5.719993    1.599027
|129>  H   -5.058712    0.942007   15.857602
|130>  C    7.512334    6.182336    1.922848
|131>  C    2.825141    0.479664   15.533781
|132>  C    6.968903    6.182336    6.805467
|133>  C    3.368572    0.479664   10.651162
|134>  C   16.824834    2.851336    1.922848
|135>  C   -6.487359    3.810664   15.533781
|136>  C   -2.343597    2.851336    6.805467
|137>  C   12.681072    3.810664   10.651162
|138>  H    6.580691    6.156354    1.736935
|139>  H    3.756784    0.505646   15.719694
|140>  H    7.900546    6.156354    6.991380
|141>  H    2.436929    0.505646   10.465249
|142>  H   15.893191    2.825354    1.736935
|143>  H   -5.555716    3.836646   15.719694
|144>  H   -1.411954    2.825354    6.991380
|145>  H   11.749429    3.836646   10.465249
|146>  C    8.477294    5.534790    1.221789
|147>  C    1.860182    1.127210   16.234839
|148>  C    6.003944    5.534790    7.506525
|149>  C    4.333531    1.127210    9.950104
|150>  C   17.789794    2.203790    1.221789
|151>  C   -7.452318    4.458211   16.234839
|152>  C   -3.308556    2.203790    7.506525
|153>  C   13.646031    4.458211    9.950104
|154>  H    8.353468    4.976514    0.462601
|155>  H    1.984007    1.685486   16.994028
|156>  H    6.127770    4.976514    8.265714
|157>  H    4.209706    1.685486    9.190915
|158>  H   17.665968    1.645514    0.462601
|159>  H   -7.328493    5.016486   16.994028
|160>  H   -3.184730    1.645514    8.265714
|161>  H   13.522206    5.016486    9.190915
|162>  C    9.405252    6.656004    2.854857
|163>  C    0.932223    0.005996   14.601772
|164>  C    5.075986    6.656004    5.873457
|165>  C    5.261490    0.005996   11.583171
|166>  C    0.092752    3.325004    2.854857
|167>  C   10.244723    3.336996   14.601772
|168>  C   14.388486    3.325004    5.873457
|169>  C   -4.051010    3.336996   11.583171
|170>  H   10.066344    0.354418    3.433719
|171>  H    0.271131    6.307582   14.022910
|172>  H    4.414894    0.354418    5.294595
|173>  H    5.922582    6.307582   12.162033
|174>  H    0.753844    3.685418    3.433719
|175>  H    9.583631    2.976582   14.022910
|176>  H   13.727394    3.685418    5.294595
|177>  H   -3.389918    2.976582   12.162033
|178>  H   10.196262    3.923918    7.216570
|179>  H    0.141213    2.738082   10.240058
|180>  H    4.284975    3.923918    1.511744
|181>  H    6.052500    2.738082   15.944885
|182>  H    0.883762    0.592918    7.216570
|183>  H    9.453713    6.069082   10.240058
|184>  H   13.597475    0.592918    1.511744
|185>  H   -3.260000    6.069082   15.944885
|186>  H   10.373444    5.496150    1.590299
|187>  H   -0.035969    1.165850   15.866330
|188>  H    4.107794    5.496150    7.138015
|189>  H    6.229682    1.165850   10.318613
|190>  H    1.060944    2.165150    1.590299
|191>  H    9.276531    4.496850   15.866330
|192>  H   13.420294    2.165150    7.138015
|193>  H   -3.082818    4.496850   10.318613
|194>  N   -2.940925    3.553511    5.775700
|195>  N   -3.499457    5.799937    3.604968
|196>  N   17.422163    3.553511    2.952614
|197>  N   17.980694    5.799937    5.123346
|198>  N   -7.643219    0.862063   12.333283
|199>  N   -7.084688    3.108489   14.504015
|200>  N   13.836932    0.862063   13.851660
|201>  N   13.278401    3.108489   11.680929
|202>  O   10.197176   -0.277139    7.915708
|203>  O   12.294606   -1.011292    7.236471
|204>  O   -1.957130    7.673292   10.220158
|205>  O    0.140300    6.939139    9.540920
|206>  O    2.186632   -1.011292    1.491843
|207>  O    4.284062   -0.277139    0.812606
|208>  O    6.053413    6.939139   16.644023
|209>  O    8.150843    7.673292   15.964785
|210>  C   -0.427334   -0.577595    6.401520
|211>  C   10.764810    7.239596   11.055108
|212>  C   14.908572   -0.577595    2.326794
|213>  C   -4.571097    7.239596   15.129835
|214>  C    7.512334   -0.479664    1.922848
|215>  C    9.405252   -0.005996    2.854857
|216>  C    0.932223    6.667996   14.601772
|217>  C    2.825141    7.141664   15.533781
|218>  C    5.075986   -0.005996    5.873457
|219>  C    6.968903   -0.479664    6.805467
|220>  C    3.368572    7.141664   10.651162
|221>  C    5.261490    6.667996   11.583171
|222>  C   -1.800166    2.851336    1.922848
|223>  C   12.137641    3.810664   15.533781
|224>  C   16.281403    2.851336    6.805467
|225>  C   -5.943928    3.810664   10.651162
|226>  C   -0.835206    2.203790    1.221789
|227>  C   11.172682    4.458211   16.234839
|228>  C   15.316444    2.203790    7.506525
|229>  C   -4.978969    4.458211    9.950104
|230>  C    1.046335    7.244925    5.257413
|231>  C    9.291140   -0.582925   12.199216
|232>  C   13.434903    7.244925    3.470901
|233>  C   -3.097427   -0.582925   13.985727
|234>  C    0.293364   -0.131241    4.411116
|235>  C   10.044111    6.793242   13.045513
|236>  C   14.187874   -0.131241    4.317199
|237>  C   -3.850398    6.793242   13.139430
|238>  N    0.574937    6.955794    6.516734
|239>  N    9.762539   -0.293794   10.939895
|240>  N   13.906301    6.955794    2.211580
|241>  N   -3.568826   -0.293794   15.245048
|242>  N    8.109663    6.884511    2.952614
|243>  N    2.227812   -0.222511   14.504015
|244>  N    6.371575    6.884511    5.775700
|245>  N    3.965901   -0.222511   11.680929
|246>  N   18.966808    2.511574    1.819854
|247>  N   -8.629333    4.150426   15.636775
|248>  N   -4.485570    2.511574    6.908461
|249>  N   14.823046    4.150426   10.548168
|250>  H   10.066344    7.016419    3.433719
|251>  H    0.271131   -0.354418   14.022910
|252>  H    4.414894    7.016419    5.294595
|253>  H    5.922582   -0.354418   12.162033
|254>  C   -4.236514    3.325004    5.873457
|255>  C   -4.437126    6.530759    4.317199
|256>  C   -3.716428    6.084405    2.326794
|257>  C   18.717752    3.325004    2.854857
|258>  C   18.918364    6.530759    4.411116
|259>  C   18.197666    6.084405    6.401520
|260>  C   -8.580889    0.131241   13.045513
|261>  C   -7.860190    0.577595   11.055108
|262>  C   -8.380277    3.336996   14.601772
|263>  C   14.774602    0.131241   13.139430
|264>  C   14.053903    0.577595   15.129835
|265>  C   14.573990    3.336996   11.583171
|266>  N   -0.644306   -0.862063    5.123346
|267>  H   -0.914950   -0.942007    7.129287
|268>  H   11.252425    7.604007   10.327342
|269>  N   10.981781    7.524063   12.333283
|270>  H   15.396188   -0.942007    1.599027
|271>  N   15.125543   -0.862063    3.604968
|272>  N   -4.788068    7.524063   13.851660
|273>  H   -5.058712    7.604007   15.857602
|274>  H    6.580691   -0.505646    1.736935
|275>  C    8.477294   -1.127210    1.221789
|276>  N    9.654308   -0.819426    1.819854
|277>  N    0.683167    7.481426   15.636775
|278>  H    3.756784    7.167646   15.719694
|279>  C    1.860182    7.789211   16.234839
|280>  N    4.826930   -0.819426    6.908461
|281>  H    7.900546   -0.505646    6.991380
|282>  C    6.003944   -1.127210    7.506525
|283>  H    2.436929    7.167646   10.465249
|284>  C    4.333531    7.789211    9.950104
|285>  N    5.510546    7.481426   10.548168
|286>  H   -2.731809    2.825354    1.736935
|287>  H   13.069284    3.836646   15.719694
|288>  H   17.213046    2.825354    6.991380
|289>  H   -6.875571    3.836646   10.465249
|290>  H   -0.959032    1.645514    0.462601
|291>  H   11.296507    5.016486   16.994028
|292>  H   15.440270    1.645514    8.265714
|293>  H   -5.102794    5.016486    9.190915
|294>  H    1.759528    7.831847    5.034492
|295>  H    8.577947   -1.169847   12.422137
|296>  H   12.721710    7.831847    3.693823
|297>  H   -2.384234   -1.169847   13.762806
|298>  H    0.388776   -0.136571    3.465141
|299>  H    9.948699    6.798571   13.991488
|300>  H   14.092461   -0.136571    5.263174
|301>  H   -3.754986    6.798571   12.193455
|302>  H   -4.897606    3.685418    5.294595
|303>  C   -5.190097    7.244925    3.470901
|304>  H   -4.532539    6.525429    5.263174
|305>  H   -3.228812    5.719993    1.599027
|306>  N   -4.718699    6.955794    2.211580
|307>  H   19.378844    3.685418    3.433719
|308>  H   19.013776    6.525429    3.465141
|309>  C   19.671335    7.244925    5.257413
|310>  H   17.710050    5.719993    7.129287
|311>  N   19.199937    6.955794    6.516734
|312>  C   -9.333860   -0.582925   12.199216
|313>  H   -8.676301    0.136571   13.991488
|314>  N   -8.862461   -0.293794   10.939895
|315>  H   -7.372575    0.942007   10.327342
|316>  H   -9.041369    2.976582   14.022910
|317>  H   14.870014    0.136571   12.193455
|318>  C   15.527573   -0.582925   13.985727
|319>  N   15.056174   -0.293794   15.245048
|320>  H   13.566288    0.942007   15.857602
|321>  H   15.235082    2.976582   12.162033
|322>  H    8.353468   -1.685486    0.462601
|323>  H    1.984007    8.347486   16.994028
|324>  H    6.127770   -1.685486    8.265714
|325>  H    4.209706    8.347486    9.190915
|326>  H   -5.903290    7.831847    3.693823
|327>  H   20.384528    7.831847    5.034492
|328>  H  -10.047053   -1.169847   12.422137
|329>  H   16.240766   -1.169847   13.762806
|330>  H    0.883762    7.254918    7.216570
|331>  H   19.508762    7.254918    7.216570
|332>  H   -9.171287   -0.592918   10.240058
|333>  H    9.453713   -0.592918   10.240058
|334>  H   -5.027525    7.254918    1.511744
|335>  H   13.597475    7.254918    1.511744
|336>  H   -3.260000   -0.592918   15.944885
|337>  H   15.365000   -0.592918   15.944885
|338> *
|339> 
|340>                          ****END OF INPUT****
================================================================================

                       ****************************
                       * Single Point Calculation *
                       ****************************

---------------------------------
CARTESIAN COORDINATES (ANGSTROEM)
---------------------------------
  Zn     7.240619    1.321008    4.364157
  Zn     3.096856    5.340992   13.092472
  Zn    -2.071881    4.652008    4.364157
  Zn    16.553119    4.652008    4.364157
  Zn    -6.215644    2.009992   13.092472
  Zn    12.409356    2.009992   13.092472
  Cl    11.421819    0.109590    7.307519
  Cl    -1.084344    6.552410   10.149109
  Cl     3.059418    0.109590    1.420795
  Cl     7.278057    6.552410   16.035834
  Cl     2.109319    3.440590    7.307519
  Cl     8.228156    3.221410   10.149109
  Cl    12.371918    3.440590    1.420795
  Cl    -2.034443    3.221410   16.035834
  N      8.668194    2.468937    5.123346
  N      1.669281    4.193063   12.333283
  N      5.813043    2.468937    3.604968
  N      4.524432    4.193063   13.851660
  N     -0.644306    5.799937    5.123346
  N     10.981781    0.862063   12.333283
  N     15.125543    5.799937    3.604968
  N     -4.788068    0.862063   13.851660
  N      9.887437    3.624794    6.516734
  N      0.450039    3.037206   10.939895
  N      4.593801    3.624794    2.211580
  N      5.743674    3.037206   15.245048
  N      0.574937    0.293794    6.516734
  N      9.762539    6.368206   10.939895
  N     13.906301    0.293794    2.211580
  N     -3.568826    6.368206   15.245048
  N      8.109663    0.222511    2.952614
  N      2.227812    6.439489   14.504015
  N      6.371575    0.222511    5.775700
  N      3.965901    6.439489   11.680929
  N     -1.202837    3.553511    2.952614
  N     11.540312    3.108489   14.504015
  N     15.684075    3.553511    5.775700
  N     -5.346599    3.108489   11.680929
  N      9.654308    5.842574    1.819854
  N      0.683167    0.819426   15.636775
  N      4.826930    5.842574    6.908461
  N      5.510546    0.819426   10.548168
  N      0.341808    2.511574    1.819854
  N      9.995667    4.150426   15.636775
  N     14.139430    2.511574    6.908461
  N     -3.801954    4.150426   10.548168
  O     12.294606    5.650709    7.236471
  O     -1.957130    1.011292   10.220158
  O      2.186632    5.650709    1.491843
  O      8.150843    1.011292   15.964785
  O      2.982106    2.319708    7.236471
  O      7.355370    4.342292   10.220158
  O     11.499132    2.319708    1.491843
  O     -1.161657    4.342292   15.964785
  O     10.197176    6.384861    7.915708
  O      0.140300    0.277139    9.540920
  O      4.284062    6.384861    0.812606
  O      6.053413    0.277139   16.644023
  O      0.884676    3.053861    7.915708
  O      9.452800    3.608139    9.540920
  O     13.596562    3.053861    0.812606
  O     -3.259087    3.608139   16.644023
  O     12.003091    1.149195    8.111397
  O     -1.665616    5.512805    9.345232
  O      2.478146    1.149195    0.616917
  O      7.859329    5.512805   16.839711
  O      2.690591    4.480195    8.111397
  O      7.646884    2.181805    9.345232
  O     11.790646    4.480195    0.616917
  O     -1.453171    2.181805   16.839711
  O     11.195849    0.585590    5.987100
  O     -0.858374    6.076410   11.469529
  O      3.285389    0.585590    2.741214
  O      7.052087    6.076410   14.715414
  O      1.883349    3.916590    5.987100
  O      8.454126    2.745410   11.469529
  O     12.597889    3.916590    2.741214
  O     -2.260413    2.745410   14.715414
  C      9.605864    3.199759    4.411116
  C      0.731611    3.462241   13.045513
  C      4.875374    3.199759    4.317199
  C      5.462102    3.462241   13.139430
  C      0.293364    6.530759    4.411116
  C     10.044111    0.131241   13.045513
  C     14.187874    6.530759    4.317199
  C     -3.850398    0.131241   13.139430
  H      9.701276    3.194429    3.465141
  H      0.636199    3.467571   13.991488
  H      4.779961    3.194429    5.263174
  H      5.557514    3.467571   12.193455
  H      0.388776    6.525429    3.465141
  H      9.948699    0.136571   13.991488
  H     14.092461    6.525429    5.263174
  H     -3.754986    0.136571   12.193455
  C     10.358835    3.913925    5.257413
  C     -0.021360    2.748075   12.199216
  C      4.122403    3.913925    3.470901
  C      6.215073    2.748075   13.985727
  C      1.046335    0.582925    5.257413
  C      9.291140    6.079075   12.199216
  C     13.434903    0.582925    3.470901
  C     -3.097427    6.079075   13.985727
  H     11.072028    4.500847    5.034492
  H     -0.734553    2.161153   12.422137
  H      3.409210    4.500847    3.693823
  H      6.928266    2.161153   13.762806
  H      1.759528    1.169847    5.034492
  H      8.577947    5.492153   12.422137
  H     12.721710    1.169847    3.693823
  H     -2.384234    5.492153   13.762806
  C      8.885166    2.753405    6.401520
  C      1.452310    3.908596   11.055108
  C      5.596072    2.753405    2.326794
  C      4.741403    3.908596   15.129835
  C     -0.427334    6.084405    6.401520
  C     10.764810    0.577595   11.055108
  C     14.908572    6.084405    2.326794
  C     -4.571097    0.577595   15.129835
  H      8.397550    2.388993    7.129287
  H      1.939925    4.273007   10.327342
  H      6.083688    2.388993    1.599027
  H      4.253788    4.273007   15.857602
  H     -0.914950    5.719993    7.129287
  H     11.252425    0.942007   10.327342
  H     15.396188    5.719993    1.599027
  H     -5.058712    0.942007   15.857602
  C      7.512334    6.182336    1.922848
  C      2.825141    0.479664   15.533781
  C      6.968903    6.182336    6.805467
  C      3.368572    0.479664   10.651162
  C     16.824834    2.851336    1.922848
  C     -6.487359    3.810664   15.533781
  C     -2.343597    2.851336    6.805467
  C     12.681072    3.810664   10.651162
  H      6.580691    6.156354    1.736935
  H      3.756784    0.505646   15.719694
  H      7.900546    6.156354    6.991380
  H      2.436929    0.505646   10.465249
  H     15.893191    2.825354    1.736935
  H     -5.555716    3.836646   15.719694
  H     -1.411954    2.825354    6.991380
  H     11.749429    3.836646   10.465249
  C      8.477294    5.534790    1.221789
  C      1.860182    1.127210   16.234839
  C      6.003944    5.534790    7.506525
  C      4.333531    1.127210    9.950104
  C     17.789794    2.203790    1.221789
  C     -7.452318    4.458211   16.234839
  C     -3.308556    2.203790    7.506525
  C     13.646031    4.458211    9.950104
  H      8.353468    4.976514    0.462601
  H      1.984007    1.685486   16.994028
  H      6.127770    4.976514    8.265714
  H      4.209706    1.685486    9.190915
  H     17.665968    1.645514    0.462601
  H     -7.328493    5.016486   16.994028
  H     -3.184730    1.645514    8.265714
  H     13.522206    5.016486    9.190915
  C      9.405252    6.656004    2.854857
  C      0.932223    0.005996   14.601772
  C      5.075986    6.656004    5.873457
  C      5.261490    0.005996   11.583171
  C      0.092752    3.325004    2.854857
  C     10.244723    3.336996   14.601772
  C     14.388486    3.325004    5.873457
  C     -4.051010    3.336996   11.583171
  H     10.066344    0.354418    3.433719
  H      0.271131    6.307582   14.022910
  H      4.414894    0.354418    5.294595
  H      5.922582    6.307582   12.162033
  H      0.753844    3.685418    3.433719
  H      9.583631    2.976582   14.022910
  H     13.727394    3.685418    5.294595
  H     -3.389918    2.976582   12.162033
  H     10.196262    3.923918    7.216570
  H      0.141213    2.738082   10.240058
  H      4.284975    3.923918    1.511744
  H      6.052500    2.738082   15.944885
  H      0.883762    0.592918    7.216570
  H      9.453713    6.069082   10.240058
  H     13.597475    0.592918    1.511744
  H     -3.260000    6.069082   15.944885
  H     10.373444    5.496150    1.590299
  H     -0.035969    1.165850   15.866330
  H      4.107794    5.496150    7.138015
  H      6.229682    1.165850   10.318613
  H      1.060944    2.165150    1.590299
  H      9.276531    4.496850   15.866330
  H     13.420294    2.165150    7.138015
  H     -3.082818    4.496850   10.318613
  N     -2.940925    3.553511    5.775700
  N     -3.499457    5.799937    3.604968
  N     17.422163    3.553511    2.952614
  N     17.980694    5.799937    5.123346
  N     -7.643219    0.862063   12.333283
  N     -7.084688    3.108489   14.504015
  N     13.836932    0.862063   13.851660
  N     13.278401    3.108489   11.680929
  O     10.197176   -0.277139    7.915708
  O     12.294606   -1.011292    7.236471
  O     -1.957130    7.673292   10.220158
  O      0.140300    6.939139    9.540920
  O      2.186632   -1.011292    1.491843
  O      4.284062   -0.277139    0.812606
  O      6.053413    6.939139   16.644023
  O      8.150843    7.673292   15.964785
  C     -0.427334   -0.577595    6.401520
  C     10.764810    7.239596   11.055108
  C     14.908572   -0.577595    2.326794
  C     -4.571097    7.239596   15.129835
  C      7.512334   -0.479664    1.922848
  C      9.405252   -0.005996    2.854857
  C      0.932223    6.667996   14.601772
  C      2.825141    7.141664   15.533781
  C      5.075986   -0.005996    5.873457
  C      6.968903   -0.479664    6.805467
  C      3.368572    7.141664   10.651162
  C      5.261490    6.667996   11.583171
  C     -1.800166    2.851336    1.922848
  C     12.137641    3.810664   15.533781
  C     16.281403    2.851336    6.805467
  C     -5.943928    3.810664   10.651162
  C     -0.835206    2.203790    1.221789
  C     11.172682    4.458211   16.234839
  C     15.316444    2.203790    7.506525
  C     -4.978969    4.458211    9.950104
  C      1.046335    7.244925    5.257413
  C      9.291140   -0.582925   12.199216
  C     13.434903    7.244925    3.470901
  C     -3.097427   -0.582925   13.985727
  C      0.293364   -0.131241    4.411116
  C     10.044111    6.793242   13.045513
  C     14.187874   -0.131241    4.317199
  C     -3.850398    6.793242   13.139430
  N      0.574937    6.955794    6.516734
  N      9.762539   -0.293794   10.939895
  N     13.906301    6.955794    2.211580
  N     -3.568826   -0.293794   15.245048
  N      8.109663    6.884511    2.952614
  N      2.227812   -0.222511   14.504015
  N      6.371575    6.884511    5.775700
  N      3.965901   -0.222511   11.680929
  N     18.966808    2.511574    1.819854
  N     -8.629333    4.150426   15.636775
  N     -4.485570    2.511574    6.908461
  N     14.823046    4.150426   10.548168
  H     10.066344    7.016419    3.433719
  H      0.271131   -0.354418   14.022910
  H      4.414894    7.016419    5.294595
  H      5.922582   -0.354418   12.162033
  C     -4.236514    3.325004    5.873457
  C     -4.437126    6.530759    4.317199
  C     -3.716428    6.084405    2.326794
  C     18.717752    3.325004    2.854857
  C     18.918364    6.530759    4.411116
  C     18.197666    6.084405    6.401520
  C     -8.580889    0.131241   13.045513
  C     -7.860190    0.577595   11.055108
  C     -8.380277    3.336996   14.601772
  C     14.774602    0.131241   13.139430
  C     14.053903    0.577595   15.129835
  C     14.573990    3.336996   11.583171
  N     -0.644306   -0.862063    5.123346
  H     -0.914950   -0.942007    7.129287
  H     11.252425    7.604007   10.327342
  N     10.981781    7.524063   12.333283
  H     15.396188   -0.942007    1.599027
  N     15.125543   -0.862063    3.604968
  N     -4.788068    7.524063   13.851660
  H     -5.058712    7.604007   15.857602
  H      6.580691   -0.505646    1.736935
  C      8.477294   -1.127210    1.221789
  N      9.654308   -0.819426    1.819854
  N      0.683167    7.481426   15.636775
  H      3.756784    7.167646   15.719694
  C      1.860182    7.789211   16.234839
  N      4.826930   -0.819426    6.908461
  H      7.900546   -0.505646    6.991380
  C      6.003944   -1.127210    7.506525
  H      2.436929    7.167646   10.465249
  C      4.333531    7.789211    9.950104
  N      5.510546    7.481426   10.548168
  H     -2.731809    2.825354    1.736935
  H     13.069284    3.836646   15.719694
  H     17.213046    2.825354    6.991380
  H     -6.875571    3.836646   10.465249
  H     -0.959032    1.645514    0.462601
  H     11.296507    5.016486   16.994028
  H     15.440270    1.645514    8.265714
  H     -5.102794    5.016486    9.190915
  H      1.759528    7.831847    5.034492
  H      8.577947   -1.169847   12.422137
  H     12.721710    7.831847    3.693823
  H     -2.384234   -1.169847   13.762806
  H      0.388776   -0.136571    3.465141
  H      9.948699    6.798571   13.991488
  H     14.092461   -0.136571    5.263174
  H     -3.754986    6.798571   12.193455
  H     -4.897606    3.685418    5.294595
  C     -5.190097    7.244925    3.470901
  H     -4.532539    6.525429    5.263174
  H     -3.228812    5.719993    1.599027
  N     -4.718699    6.955794    2.211580
  H     19.378844    3.685418    3.433719
  H     19.013776    6.525429    3.465141
  C     19.671335    7.244925    5.257413
  H     17.710050    5.719993    7.129287
  N     19.199937    6.955794    6.516734
  C     -9.333860   -0.582925   12.199216
  H     -8.676301    0.136571   13.991488
  N     -8.862461   -0.293794   10.939895
  H     -7.372575    0.942007   10.327342
  H     -9.041369    2.976582   14.022910
  H     14.870014    0.136571   12.193455
  C     15.527573   -0.582925   13.985727
  N     15.056174   -0.293794   15.245048
  H     13.566288    0.942007   15.857602
  H     15.235082    2.976582   12.162033
  H      8.353468   -1.685486    0.462601
  H      1.984007    8.347486   16.994028
  H      6.127770   -1.685486    8.265714
  H      4.209706    8.347486    9.190915
  H     -5.903290    7.831847    3.693823
  H     20.384528    7.831847    5.034492
  H    -10.047053   -1.169847   12.422137
  H     16.240766   -1.169847   13.762806
  H      0.883762    7.254918    7.216570
  H     19.508762    7.254918    7.216570
  H     -9.171287   -0.592918   10.240058
  H      9.453713   -0.592918   10.240058
  H     -5.027525    7.254918    1.511744
  H     13.597475    7.254918    1.511744
  H     -3.260000   -0.592918   15.944885
  H     15.365000   -0.592918   15.944885

----------------------------
CARTESIAN COORDINATES (A.U.)
----------------------------
  NO LB      ZA    FRAG     MASS         X           Y           Z
   0 Zn   30.0000    0    65.380   13.682787    2.496343    8.247062
   1 Zn   30.0000    0    65.380    5.852210   10.093012   24.741186
   2 Zn   30.0000    0    65.380   -3.915288    8.791021    8.247062
   3 Zn   30.0000    0    65.380   31.280862    8.791021    8.247062
   4 Zn   30.0000    0    65.380  -11.745865    3.798334   24.741186
   5 Zn   30.0000    0    65.380   23.450284    3.798334   24.741186
   6 Cl   17.0000    0    35.453   21.584110    0.207095   13.809210
   7 Cl   17.0000    0    35.453   -2.049113   12.382260   19.179037
   8 Cl   17.0000    0    35.453    5.781462    0.207095    2.684913
   9 Cl   17.0000    0    35.453   13.753535   12.382260   30.303335
  10 Cl   17.0000    0    35.453    3.986035    6.501773   13.809210
  11 Cl   17.0000    0    35.453   15.548961    6.087583   19.179037
  12 Cl   17.0000    0    35.453   23.379537    6.501773    2.684913
  13 Cl   17.0000    0    35.453   -3.844540    6.087583   30.303335
  14 N     7.0000    0    14.007   16.380513    4.665615    9.681721
  15 N     7.0000    0    14.007    3.154484    7.923741   23.306527
  16 N     7.0000    0    14.007   10.985059    4.665615    6.812402
  17 N     7.0000    0    14.007    8.549937    7.923741   26.175844
  18 N     7.0000    0    14.007   -1.217562   10.960293    9.681721
  19 N     7.0000    0    14.007   20.752559    1.629063   23.306527
  20 N     7.0000    0    14.007   28.583134   10.960293    6.812402
  21 N     7.0000    0    14.007   -9.048137    1.629063   26.175844
  22 N     7.0000    0    14.007   18.684548    6.849868   12.314843
  23 N     7.0000    0    14.007    0.850450    5.739488   20.673405
  24 N     7.0000    0    14.007    8.681026    6.849868    4.179281
  25 N     7.0000    0    14.007   10.853971    5.739488   28.808966
  26 N     7.0000    0    14.007    1.086473    0.555190   12.314843
  27 N     7.0000    0    14.007   18.448525   12.034165   20.673405
  28 N     7.0000    0    14.007   26.279100    0.555190    4.179281
  29 N     7.0000    0    14.007   -6.744104   12.034165   28.808966
  30 N     7.0000    0    14.007   15.325042    0.420485    5.579632
  31 N     7.0000    0    14.007    4.209955   12.168871   27.408616
  32 N     7.0000    0    14.007   12.040532    0.420485   10.914491
  33 N     7.0000    0    14.007    7.494467   12.168871   22.073757
  34 N     7.0000    0    14.007   -2.273033    6.715163    5.579632
  35 N     7.0000    0    14.007   21.808029    5.874193   27.408616
  36 N     7.0000    0    14.007   29.638606    6.715163   10.914491
  37 N     7.0000    0    14.007  -10.103608    5.874193   22.073757
  38 N     7.0000    0    14.007   18.243998   11.040865    3.439026
  39 N     7.0000    0    14.007    1.290999    1.548491   29.549222
  40 N     7.0000    0    14.007    9.121576   11.040865   13.055099
  41 N     7.0000    0    14.007   10.413423    1.548491   19.933149
  42 N     7.0000    0    14.007    0.645924    4.746187    3.439026
  43 N     7.0000    0    14.007   18.889073    7.843168   29.549222
  44 N     7.0000    0    14.007   26.719650    4.746187   13.055099
  45 N     7.0000    0    14.007   -7.184652    7.843168   19.933149
  46 O     8.0000    0    15.999   23.233438   10.678292   13.674948
  47 O     8.0000    0    15.999   -3.698440    1.911065   19.313300
  48 O     8.0000    0    15.999    4.132136   10.678292    2.819175
  49 O     8.0000    0    15.999   15.402861    1.911065   30.169071
  50 O     8.0000    0    15.999    5.635364    4.383613   13.674948
  51 O     8.0000    0    15.999   13.899635    8.205743   19.313300
  52 O     8.0000    0    15.999   21.730210    4.383613    2.819175
  53 O     8.0000    0    15.999   -2.195214    8.205743   30.169071
  54 O     8.0000    0    15.999   19.269870   12.065639   14.958520
  55 O     8.0000    0    15.999    0.265129    0.523717   18.029726
  56 O     8.0000    0    15.999    8.095704   12.065639    1.535603
  57 O     8.0000    0    15.999   11.439293    0.523717   31.452645
  58 O     8.0000    0    15.999    1.671795    5.770961   14.958520
  59 O     8.0000    0    15.999   17.863203    6.818395   18.029726
  60 O     8.0000    0    15.999   25.693779    5.770961    1.535603
  61 O     8.0000    0    15.999   -6.158782    6.818395   31.452645
  62 O     8.0000    0    15.999   22.682555    2.171664   15.328319
  63 O     8.0000    0    15.999   -3.147558   10.417692   17.659929
  64 O     8.0000    0    15.999    4.683017    2.171664    1.165804
  65 O     8.0000    0    15.999   14.851979   10.417692   31.822442
  66 O     8.0000    0    15.999    5.084480    8.466342   15.328319
  67 O     8.0000    0    15.999   14.450517    4.123014   17.659929
  68 O     8.0000    0    15.999   22.281092    8.466342    1.165804
  69 O     8.0000    0    15.999   -2.746095    4.123014   31.822442
  70 O     8.0000    0    15.999   21.157088    1.106605   11.313979
  71 O     8.0000    0    15.999   -1.622092   11.482751   21.674269
  72 O     8.0000    0    15.999    6.208485    1.106605    5.180144
  73 O     8.0000    0    15.999   13.326513   11.482751   27.808102
  74 O     8.0000    0    15.999    3.559014    7.401282   11.313979
  75 O     8.0000    0    15.999   15.975983    5.188073   21.674269
  76 O     8.0000    0    15.999   23.806560    7.401282    5.180144
  77 O     8.0000    0    15.999   -4.271562    5.188073   27.808102
  78 C     6.0000    0    12.011   18.152452    6.046668    8.335801
  79 C     6.0000    0    12.011    1.382544    6.542687   24.652447
  80 C     6.0000    0    12.011    9.213122    6.046668    8.158324
  81 C     6.0000    0    12.011   10.321877    6.542687   24.829924
  82 C     6.0000    0    12.011    0.554378   12.341346    8.335801
  83 C     6.0000    0    12.011   18.980619    0.248010   24.652447
  84 C     6.0000    0    12.011   26.811196   12.341346    8.158324
  85 C     6.0000    0    12.011   -7.276198    0.248010   24.829924
  86 H     1.0000    0     1.008   18.332755    6.036596    6.548168
  87 H     1.0000    0     1.008    1.202242    6.552760   26.440081
  88 H     1.0000    0     1.008    9.032817    6.036596    9.945957
  89 H     1.0000    0     1.008   10.502179    6.552760   23.042291
  90 H     1.0000    0     1.008    0.734680   12.331274    6.548168
  91 H     1.0000    0     1.008   18.800316    0.258082   26.440081
  92 H     1.0000    0     1.008   26.630892   12.331274    9.945957
  93 H     1.0000    0     1.008   -7.095895    0.258082   23.042291
  94 C     6.0000    0    12.011   19.575361    7.396246    9.935071
  95 C     6.0000    0    12.011   -0.040365    5.193109   23.053177
  96 C     6.0000    0    12.011    7.790213    7.396246    6.559052
  97 C     6.0000    0    12.011   11.744786    5.193109   26.429194
  98 C     6.0000    0    12.011    1.977287    1.101569    9.935071
  99 C     6.0000    0    12.011   17.557710   11.487787   23.053177
 100 C     6.0000    0    12.011   25.388287    1.101569    6.559052
 101 C     6.0000    0    12.011   -5.853289   11.487787   26.429194
 102 H     1.0000    0     1.008   20.923101    8.505368    9.513811
 103 H     1.0000    0     1.008   -1.388104    4.083987   23.474437
 104 H     1.0000    0     1.008    6.442473    8.505368    6.980314
 105 H     1.0000    0     1.008   13.092525    4.083987   26.007934
 106 H     1.0000    0     1.008    3.325026    2.210690    9.513811
 107 H     1.0000    0     1.008   16.209971   10.378665   23.474437
 108 H     1.0000    0     1.008   24.040548    2.210690    6.980314
 109 H     1.0000    0     1.008   -4.505549   10.378665   26.007934
 110 C     6.0000    0    12.011   16.790530    5.203181   12.097120
 111 C     6.0000    0    12.011    2.744468    7.386176   20.891127
 112 C     6.0000    0    12.011   10.575044    5.203181    4.397003
 113 C     6.0000    0    12.011    8.959953    7.386176   28.591245
 114 C     6.0000    0    12.011   -0.807544   11.497859   12.097120
 115 C     6.0000    0    12.011   20.342543    1.091496   20.891127
 116 C     6.0000    0    12.011   28.173118   11.497859    4.397003
 117 C     6.0000    0    12.011   -8.638121    1.091496   28.591245
 118 H     1.0000    0     1.008   15.869070    4.514543   13.472400
 119 H     1.0000    0     1.008    3.665927    8.074813   19.515848
 120 H     1.0000    0     1.008   11.496504    4.514543    3.021723
 121 H     1.0000    0     1.008    8.038494    8.074813   29.966525
 122 H     1.0000    0     1.008   -1.729005   10.809220   13.472400
 123 H     1.0000    0     1.008   21.264002    1.780135   19.515848
 124 H     1.0000    0     1.008   29.094579   10.809220    3.021723
 125 H     1.0000    0     1.008   -9.559580    1.780135   29.966525
 126 C     6.0000    0    12.011   14.196254   11.682922    3.633656
 127 C     6.0000    0    12.011    5.338743    0.906434   29.354592
 128 C     6.0000    0    12.011   13.169318   11.682922   12.860469
 129 C     6.0000    0    12.011    6.365679    0.906434   20.127779
 130 C     6.0000    0    12.011   31.794329    5.388244    3.633656
 131 C     6.0000    0    12.011  -12.259332    7.201111   29.354592
 132 C     6.0000    0    12.011   -4.428756    5.388244   12.860469
 133 C     6.0000    0    12.011   23.963753    7.201111   20.127779
 134 H     1.0000    0     1.008   12.435704   11.633823    3.282331
 135 H     1.0000    0     1.008    7.099293    0.955532   29.705917
 136 H     1.0000    0     1.008   14.929868   11.633823   13.211793
 137 H     1.0000    0     1.008    4.605128    0.955532   19.776455
 138 H     1.0000    0     1.008   30.033778    5.339145    3.282331
 139 H     1.0000    0     1.008  -10.498782    7.250210   29.705917
 140 H     1.0000    0     1.008   -2.668206    5.339145   13.211793
 141 H     1.0000    0     1.008   22.203203    7.250210   19.776455
 142 C     6.0000    0    12.011   16.019764   10.459237    2.308847
 143 C     6.0000    0    12.011    3.515235    2.130118   30.679400
 144 C     6.0000    0    12.011   11.345810   10.459237   14.185276
 145 C     6.0000    0    12.011    8.189187    2.130118   18.802972
 146 C     6.0000    0    12.011   33.617839    4.164560    2.308847
 147 C     6.0000    0    12.011  -14.082840    8.424798   30.679400
 148 C     6.0000    0    12.011   -6.252265    4.164560   14.185276
 149 C     6.0000    0    12.011   25.787261    8.424798   18.802972
 150 H     1.0000    0     1.008   15.785767    9.404249    0.874189
 151 H     1.0000    0     1.008    3.749230    3.185107   32.114059
 152 H     1.0000    0     1.008   11.579807    9.404249   15.619936
 153 H     1.0000    0     1.008    7.955191    3.185107   17.368312
 154 H     1.0000    0     1.008   33.383841    3.109571    0.874189
 155 H     1.0000    0     1.008  -13.848845    9.479785   32.114059
 156 H     1.0000    0     1.008   -6.018268    3.109571   15.619936
 157 H     1.0000    0     1.008   25.553266    9.479785   17.368312
 158 C     6.0000    0    12.011   17.773351   12.578025    5.394898
 159 C     6.0000    0    12.011    1.761646    0.011331   27.593350
 160 C     6.0000    0    12.011    9.592223   12.578025   11.099225
 161 C     6.0000    0    12.011    9.942775    0.011331   21.889021
 162 C     6.0000    0    12.011    0.175276    6.283347    5.394898
 163 C     6.0000    0    12.011   19.359721    6.306009   27.593350
 164 C     6.0000    0    12.011   27.190298    6.283347   11.099225
 165 C     6.0000    0    12.011   -7.655299    6.306009   21.889021
 166 H     1.0000    0     1.008   19.022633    0.669753    6.488789
 167 H     1.0000    0     1.008    0.512363   11.919603   26.499460
 168 H     1.0000    0     1.008    8.342941    0.669753   10.005335
 169 H     1.0000    0     1.008   11.192058   11.919603   22.982912
 170 H     1.0000    0     1.008    1.424559    6.964431    6.488789
 171 H     1.0000    0     1.008   18.110438    5.624925   26.499460
 172 H     1.0000    0     1.008   25.941015    6.964431   10.005335
 173 H     1.0000    0     1.008   -6.406017    5.624925   22.982912
 174 H     1.0000    0     1.008   19.268143    7.415130   13.637341
 175 H     1.0000    0     1.008    0.266854    5.174225   19.350905
 176 H     1.0000    0     1.008    8.097429    7.415130    2.856782
 177 H     1.0000    0     1.008   11.437567    5.174225   30.131466
 178 H     1.0000    0     1.008    1.670068    1.120453   13.637341
 179 H     1.0000    0     1.008   17.864929   11.468903   19.350905
 180 H     1.0000    0     1.008   25.695504    1.120453    2.856782
 181 H     1.0000    0     1.008   -6.160507   11.468903   30.131466
 182 H     1.0000    0     1.008   19.602968   10.386218    3.005230
 183 H     1.0000    0     1.008   -0.067972    2.203137   29.983018
 184 H     1.0000    0     1.008    7.762606   10.386218   13.488893
 185 H     1.0000    0     1.008   11.772393    2.203137   19.499353
 186 H     1.0000    0     1.008    2.004894    4.091541    3.005230
 187 H     1.0000    0     1.008   17.530103    8.497815   29.983018
 188 H     1.0000    0     1.008   25.360680    4.091541   13.488893
 189 H     1.0000    0     1.008   -5.825682    8.497815   19.499353
 190 N     7.0000    0    14.007   -5.557543    6.715163   10.914491
 191 N     7.0000    0    14.007   -6.613015   10.960293    6.812402
 192 N     7.0000    0    14.007   32.923117    6.715163    5.579632
 193 N     7.0000    0    14.007   33.978587   10.960293    9.681721
 194 N     7.0000    0    14.007  -14.443591    1.629063   23.306527
 195 N     7.0000    0    14.007  -13.388120    5.874193   27.408616
 196 N     7.0000    0    14.007   26.148012    1.629063   26.175844
 197 N     7.0000    0    14.007   25.092541    5.874193   22.073757
 198 O     8.0000    0    15.999   19.269870   -0.523717   14.958520
 199 O     8.0000    0    15.999   23.233438   -1.911065   13.674948
 200 O     8.0000    0    15.999   -3.698440   14.500420   19.313300
 201 O     8.0000    0    15.999    0.265129   13.113072   18.029726
 202 O     8.0000    0    15.999    4.132136   -1.911065    2.819175
 203 O     8.0000    0    15.999    8.095704   -0.523717    1.535603
 204 O     8.0000    0    15.999   11.439293   13.113072   31.452645
 205 O     8.0000    0    15.999   15.402861   14.500420   30.169071
 206 C     6.0000    0    12.011   -0.807544   -1.091496   12.097120
 207 C     6.0000    0    12.011   20.342543   13.680854   20.891127
 208 C     6.0000    0    12.011   28.173118   -1.091496    4.397003
 209 C     6.0000    0    12.011   -8.638121   13.680854   28.591245
 210 C     6.0000    0    12.011   14.196254   -0.906434    3.633656
 211 C     6.0000    0    12.011   17.773351   -0.011331    5.394898
 212 C     6.0000    0    12.011    1.761646   12.600686   27.593350
 213 C     6.0000    0    12.011    5.338743   13.495789   29.354592
 214 C     6.0000    0    12.011    9.592223   -0.011331   11.099225
 215 C     6.0000    0    12.011   13.169318   -0.906434   12.860469
 216 C     6.0000    0    12.011    6.365679   13.495789   20.127779
 217 C     6.0000    0    12.011    9.942775   12.600686   21.889021
 218 C     6.0000    0    12.011   -3.401821    5.388244    3.633656
 219 C     6.0000    0    12.011   22.936817    7.201111   29.354592
 220 C     6.0000    0    12.011   30.767393    5.388244   12.860469
 221 C     6.0000    0    12.011  -11.232396    7.201111   20.127779
 222 C     6.0000    0    12.011   -1.578311    4.164560    2.308847
 223 C     6.0000    0    12.011   21.113309    8.424798   30.679400
 224 C     6.0000    0    12.011   28.943885    4.164560   14.185276
 225 C     6.0000    0    12.011   -9.408888    8.424798   18.802972
 226 C     6.0000    0    12.011    1.977287   13.690924    9.935071
 227 C     6.0000    0    12.011   17.557710   -1.101569   23.053177
 228 C     6.0000    0    12.011   25.388287   13.690924    6.559052
 229 C     6.0000    0    12.011   -5.853289   -1.101569   26.429194
 230 C     6.0000    0    12.011    0.554378   -0.248010    8.335801
 231 C     6.0000    0    12.011   18.980619   12.837367   24.652447
 232 C     6.0000    0    12.011   26.811196   -0.248010    8.158324
 233 C     6.0000    0    12.011   -7.276198   12.837367   24.829924
 234 N     7.0000    0    14.007    1.086473   13.144546   12.314843
 235 N     7.0000    0    14.007   18.448525   -0.555190   20.673405
 236 N     7.0000    0    14.007   26.279100   13.144546    4.179281
 237 N     7.0000    0    14.007   -6.744104   -0.555190   28.808966
 238 N     7.0000    0    14.007   15.325042   13.009840    5.579632
 239 N     7.0000    0    14.007    4.209955   -0.420485   27.408616
 240 N     7.0000    0    14.007   12.040532   13.009840   10.914491
 241 N     7.0000    0    14.007    7.494467   -0.420485   22.073757
 242 N     7.0000    0    14.007   35.842073    4.746187    3.439026
 243 N     7.0000    0    14.007  -16.307076    7.843168   29.549222
 244 N     7.0000    0    14.007   -8.476499    4.746187   13.055099
 245 N     7.0000    0    14.007   28.011497    7.843168   19.933149
 246 H     1.0000    0     1.008   19.022633   13.259110    6.488789
 247 H     1.0000    0     1.008    0.512363   -0.669753   26.499460
 248 H     1.0000    0     1.008    8.342941   13.259110   10.005335
 249 H     1.0000    0     1.008   11.192058   -0.669753   22.982912
 250 C     6.0000    0    12.011   -8.005851    6.283347   11.099225
 251 C     6.0000    0    12.011   -8.384953   12.341346    8.158324
 252 C     6.0000    0    12.011   -7.023031   11.497859    4.397003
 253 C     6.0000    0    12.011   35.371425    6.283347    5.394898
 254 C     6.0000    0    12.011   35.750527   12.341346    8.335801
 255 C     6.0000    0    12.011   34.388605   11.497859   12.097120
 256 C     6.0000    0    12.011  -16.215530    0.248010   24.652447
 257 C     6.0000    0    12.011  -14.853606    1.091496   20.891127
 258 C     6.0000    0    12.011  -15.836428    6.306009   27.593350
 259 C     6.0000    0    12.011   27.919952    0.248010   24.829924
 260 C     6.0000    0    12.011   26.558028    1.091496   28.591245
 261 C     6.0000    0    12.011   27.540850    6.306009   21.889021
 262 N     7.0000    0    14.007   -1.217562   -1.629063    9.681721
 263 H     1.0000    0     1.008   -1.729005   -1.780135   13.472400
 264 H     1.0000    0     1.008   21.264002   14.369491   19.515848
 265 N     7.0000    0    14.007   20.752559   14.218418   23.306527
 266 H     1.0000    0     1.008   29.094579   -1.780135    3.021723
 267 N     7.0000    0    14.007   28.583134   -1.629063    6.812402
 268 N     7.0000    0    14.007   -9.048137   14.218418   26.175844
 269 H     1.0000    0     1.008   -9.559580   14.369491   29.966525
 270 H     1.0000    0     1.008   12.435704   -0.955532    3.282331
 271 C     6.0000    0    12.011   16.019764   -2.130118    2.308847
 272 N     7.0000    0    14.007   18.243998   -1.548491    3.439026
 273 N     7.0000    0    14.007    1.290999   14.137846   29.549222
 274 H     1.0000    0     1.008    7.099293   13.544888   29.705917
 275 C     6.0000    0    12.011    3.515235   14.719476   30.679400
 276 N     7.0000    0    14.007    9.121576   -1.548491   13.055099
 277 H     1.0000    0     1.008   14.929868   -0.955532   13.211793
 278 C     6.0000    0    12.011   11.345810   -2.130118   14.185276
 279 H     1.0000    0     1.008    4.605128   13.544888   19.776455
 280 C     6.0000    0    12.011    8.189187   14.719476   18.802972
 281 N     7.0000    0    14.007   10.413423   14.137846   19.933149
 282 H     1.0000    0     1.008   -5.162371    5.339145    3.282331
 283 H     1.0000    0     1.008   24.697368    7.250210   29.705917
 284 H     1.0000    0     1.008   32.527943    5.339145   13.211793
 285 H     1.0000    0     1.008  -12.992946    7.250210   19.776455
 286 H     1.0000    0     1.008   -1.812308    3.109571    0.874189
 287 H     1.0000    0     1.008   21.347304    9.479785   32.114059
 288 H     1.0000    0     1.008   29.177882    3.109571   15.619936
 289 H     1.0000    0     1.008   -9.642883    9.479785   17.368312
 290 H     1.0000    0     1.008    3.325026   14.800046    9.513811
 291 H     1.0000    0     1.008   16.209971   -2.210690   23.474437
 292 H     1.0000    0     1.008   24.040548   14.800046    6.980314
 293 H     1.0000    0     1.008   -4.505549   -2.210690   26.007934
 294 H     1.0000    0     1.008    0.734680   -0.258082    6.548168
 295 H     1.0000    0     1.008   18.800316   12.847437   26.440081
 296 H     1.0000    0     1.008   26.630892   -0.258082    9.945957
 297 H     1.0000    0     1.008   -7.095895   12.847437   23.042291
 298 H     1.0000    0     1.008   -9.255134    6.964431   10.005335
 299 C     6.0000    0    12.011   -9.807862   13.690924    6.559052
 300 H     1.0000    0     1.008   -8.565257   12.331274    9.945957
 301 H     1.0000    0     1.008   -6.101570   10.809220    3.021723
 302 N     7.0000    0    14.007   -8.917049   13.144546    4.179281
 303 H     1.0000    0     1.008   36.620708    6.964431    6.488789
 304 H     1.0000    0     1.008   35.930829   12.331274    6.548168
 305 C     6.0000    0    12.011   37.173436   13.690924    9.935071
 306 H     1.0000    0     1.008   33.467144   10.809220   13.472400
 307 N     7.0000    0    14.007   36.282623   13.144546   12.314843
 308 C     6.0000    0    12.011  -17.638439   -1.101569   23.053177
 309 H     1.0000    0     1.008  -16.395833    0.258082   26.440081
 310 N     7.0000    0    14.007  -16.747624   -0.555190   20.673405
 311 H     1.0000    0     1.008  -13.932148    1.780135   19.515848
 312 H     1.0000    0     1.008  -17.085711    5.624925   26.499460
 313 H     1.0000    0     1.008   28.100254    0.258082   23.042291
 314 C     6.0000    0    12.011   29.342860   -1.101569   26.429194
 315 N     7.0000    0    14.007   28.452045   -0.555190   28.808966
 316 H     1.0000    0     1.008   25.636569    1.780135   29.966525
 317 H     1.0000    0     1.008   28.790133    5.624925   22.982912
 318 H     1.0000    0     1.008   15.785767   -3.185107    0.874189
 319 H     1.0000    0     1.008    3.749230   15.774462   32.114059
 320 H     1.0000    0     1.008   11.579807   -3.185107   15.619936
 321 H     1.0000    0     1.008    7.955191   15.774462   17.368312
 322 H     1.0000    0     1.008  -11.155601   14.800046    6.980314
 323 H     1.0000    0     1.008   38.521175   14.800046    9.513811
 324 H     1.0000    0     1.008  -18.986179   -2.210690   23.474437
 325 H     1.0000    0     1.008   30.690600   -2.210690   26.007934
 326 H     1.0000    0     1.008    1.670068   13.709808   13.637341
 327 H     1.0000    0     1.008   36.866217   13.709808   13.637341
 328 H     1.0000    0     1.008  -17.331221   -1.120453   19.350905
 329 H     1.0000    0     1.008   17.864929   -1.120453   19.350905
 330 H     1.0000    0     1.008   -9.500645   13.709808    2.856782
 331 H     1.0000    0     1.008   25.695504   13.709808    2.856782
 332 H     1.0000    0     1.008   -6.160507   -1.120453   30.131466
 333 H     1.0000    0     1.008   29.035642   -1.120453   30.131466

--------------------------------
INTERNAL COORDINATES (ANGSTROEM)
--------------------------------
 Zn     0   0   0     0.000000000000     0.00000000     0.00000000
 Zn     1   0   0    10.464918819544     0.00000000     0.00000000
 Zn     1   2   0     9.890309259573    59.85369232     0.00000000
 Zn     1   2   3     9.890309259573   104.09073076   140.89796160
 Zn     2   1   3     9.890309259573   104.09073076    39.10203840
 Zn     2   1   3     9.890309259573    59.85369232   180.00000000
 Cl     1   2   3     5.254840328094    86.35629404   185.68113206
 Cl     2   1   3     5.254840888219    86.35628532   354.31886559
 Cl     1   2   3     5.254841123780   103.92583518   340.75432514
 Cl     2   1   3     5.254841123780   103.92583518   199.24567486
 Cl     3   1   2     5.254840328094    34.22425401   349.88345962
 Cl     6   2   1     5.254840888219    34.22426299    10.11654214
 Cl     4   1   2     5.254841123780    34.22424851   215.88548719
 Cl     5   2   1     5.254841123780    34.22424851   144.11451281
 N      1   2   3     1.982947126725    75.12941496   137.05311069
 N      2   1   3     1.982947126725    75.12941496    42.94688931
 N      1   2   3     1.982947846651    79.15690755    23.58509960
 N      2   1   3     1.982947463792    79.15688089   156.41490182
 N      3   1   2     1.982947126725    61.12527256    48.76310529
 N      6   2   1     1.982947126725    61.12527256   311.23689471
 N      4   1   2     1.982947846651    61.12525296   274.76513121
 N      5   2   1     1.982947463792    61.12524686    85.23483911
 N     15   1   2     2.182679320478   162.38717615    22.55590254
 N     16   2   1     2.182678761879   162.38715989   337.44414529
 N     17   1   2     2.182678761879   162.38714770   165.06180975
 N     18   2   1     2.182678761879   162.38712159   194.93817311
 N     11   3   1     3.589149495879    74.84392766   281.57557388
 N     12   6   2     3.589150143711    74.84390721    78.42442565
 N     13   4   1     3.589149923384    74.84391387   281.57557163
 N     14   5   2     3.589150143711    74.84390556    78.42441473
 N      1   2   3     1.988563997913   167.76438864   234.38041676
 N      2   1   3     1.988563997913   167.76438864   305.61958324
 N      1   2   3     1.988563997913    56.43504218   265.84395626
 N      2   1   3     1.988564434934    56.43503685   274.15601331
 N      3   1   2     1.988563997913    53.30630214   192.40705513
 N      6   2   1     1.988563997913    53.30630214   167.59294487
 N      4   1   2     1.988563997913    53.30630214    58.40907619
 N      5   2   1     1.988564434934    53.30627769   301.59093452
 N     13   4   1     3.648860004691   112.30882177    71.43121090
 N     14   5   2     3.648860004691   112.30882177   288.56878910
 N     11   3   1     3.648860640110   112.30883547    71.43121032
 N     12   6   2     3.648860004691   112.30881276   288.56880095
 N     35   3   1     2.180528859152   160.43916447   350.62627427
 N     36   6   2     2.180528859152   160.43916447     9.37372573
 N     37   4   1     2.180529378641   160.43918176   350.62623150
 N     38   5   2     2.180529378641   160.43920728     9.37376226
 O     23  15   1     3.227509183714   153.04777715   187.08756845
 O     24  16   2     3.227508556011   153.04776396   172.91244854
 O     25  17   1     3.227509183714   153.04776279   187.08763449
 O     26  18   2     3.227508556011   153.04776396   172.91241415
 O     11   3   1     1.422385820935   129.93573979   316.41695599
 O     12   6   2     1.422385257278   129.93568175    43.58303744
 O     13   4   1     1.422385207327   129.93572014   316.41692495
 O     14   5   2     1.422385257278   129.93568903    43.58304178
 O     47  23  15     2.323694185166    65.81382779   121.31790415
 O     48  24  16     2.323694793417    65.81384637   238.68201764
 O     49  25  17     2.323694185166    65.81382779   121.31794026
 O     50  26  18     2.323694793417    65.81384637   238.68201764
 O     11   3   1     1.420986860112    67.46389479   219.13998608
 O     12   6   2     1.420987721938    67.46388206   140.86001995
 O     13   4   1     1.420987721938    67.46386790   219.13998918
 O     14   5   2     1.420987721938    67.46386790   140.86001082
 O      7   1   2     1.436967478022   117.93235593   308.97336783
 O      8   2   1     1.436966918596   117.93234615    51.02667056
 O      9   1   2     1.436967478022   117.93235632    84.36313308
 O     10   2   1     1.436966918596   117.93234287   275.63690108
 O     11   3   1     1.436967478022   117.93235593   120.21886428
 O     12   6   2     1.436966918596   117.93234615   239.78117571
 O     13   4   1     1.436967478022   117.93235632   120.21887316
 O     14   5   2     1.436966918596   117.93234287   239.78116101
 O      7   1   2     1.421669714266    43.62335809   218.73287636
 O      8   2   1     1.421670643046    43.62335638   141.26713914
 O      9   1   2     1.421669873213    43.62332492   354.12263630
 O     10   2   1     1.421670643046    43.62337124     5.87738090
 O     11   3   1     1.421669714266    43.62335809    29.97837280
 O     12   6   2     1.421670643046    43.62335638   330.02164429
 O     13   4   1     1.421669873213    43.62332492    29.97837637
 O     14   5   2     1.421670643046    43.62337124   330.02164083
 C     15   1   2     1.385856196538   126.55678309   213.57469997
 C     16   2   1     1.385856196538   126.55678309   146.42530003
 C     17   1   2     1.385856033867   126.55674023   356.08075127
 C     18   2   1     1.385856196538   126.55681869     3.91928209
 C     19   3   1     1.385856196538   126.55678309    75.85937447
 C     20   6   2     1.385856196538   126.55678309   284.14062553
 C     21   4   1     1.385856033867   126.55674023    75.85942291
 C     22   5   2     1.385856196538   126.55681869   284.14059585
 H     79  15   1     0.950789440028   125.18835427   356.36092989
 H     80  16   2     0.950789440028   125.18835427     3.63907011
 H     81  17   1     0.950789540379   125.18844989   356.36081957
 H     82  18   2     0.950789440028   125.18835427     3.63909193
 H     83  19   3     0.950789440028   125.18835427   356.36092989
 H     84  20   6     0.950789440028   125.18835427     3.63907011
 H     85  21   4     0.950789540379   125.18844989   356.36081957
 H     86  22   5     0.950789440028   125.18835427     3.63909193
 C     79  15   1     1.339110531138   109.68760860   176.43331713
 C     80  16   2     1.339110531138   109.68760860   183.56668287
 C     81  17   1     1.339111163123   109.68752554   176.43328890
 C     82  18   2     1.339110531138   109.68760860   183.56670470
 C     27  11   3     1.375391649897    82.58254851    70.31839302
 C     28  12   6     1.375391992634    82.58254297   289.68158141
 C     29  13   4     1.375391649897    82.58254388    70.31839516
 C     30  14   5     1.375391992634    82.58254297   289.68156575
 H     95  79  15     0.950166017901   127.10044301   180.14054895
 H     96  80  16     0.950166017901   127.10044301   179.85945105
 H     97  81  17     0.950166252514   127.10035149   180.14052375
 H     98  82  18     0.950166017901   127.10044301   179.85945105
 H     99  27  11     0.950166017901   127.00779507    22.22093618
 H    100  28  12     0.950166017901   127.00782346   337.77909668
 H    101  29  13     0.950166252514   127.00785354    22.22091730
 H    102  30  14     0.950166017901   127.00782346   337.77909668
 C     15   1   2     1.327300895081   127.62160696    29.82700561
 C     16   2   1     1.327301480281   127.62153757   330.17297960
 C     17   1   2     1.327300731613   127.62156309   172.33296474
 C     18   2   1     1.327301480281   127.62150089   187.66698634
 C     19   3   1     1.327300895081   127.62160696   252.11168011
 C     20   6   2     1.327301694601   127.62156199   107.88834850
 C     21   4   1     1.327300731613   127.62156309   252.11163638
 C     22   5   2     1.327301694601   127.62152531   107.88834351
 H    111  15   1     0.948794116492   124.91258251     3.85496489
 H    112  16   2     0.948792451436   124.91267961   356.14506102
 H    113  17   1     0.948794116492   124.91261449     3.85502639
 H    114  18   2     0.948793218481   124.91271820   356.14503762
 H    115  19   3     0.948794116492   124.91258251     3.85496489
 H    116  20   6     0.948792835515   124.91262097   356.14495603
 H    117  21   4     0.948794116492   124.91261449     3.85502639
 H    118  22   5     0.948793602560   124.91265955   356.14493263
 C     39  13   4     2.171197503074   147.45389774   216.06114899
 C     40  14   5     2.171197503074   147.45389774   143.93885101
 C     41  11   3     2.171196516534   147.45391378   216.06117722
 C     42  12   6     2.171197503074   147.45389774   143.93883777
 C      4   1   2     3.045691764820    83.38954558   174.48808948
 C      5   2   1     3.045691764820    83.38954558   185.51191052
 C      3   1   2     3.045692655594    83.38956535   308.48607445
 C      6   2   1     3.045692655594    83.38956535    51.51392555
 H    127  39  13     0.950366975090   162.46744218   314.24712019
 H    128  40  14     0.950366975090   162.46744218    45.75287981
 H    129  41  11     0.950366975090   162.46743872   314.24709756
 H    130  42  12     0.950366975090   162.46744218    45.75287981
 H    131   4   1     0.950366975090    94.90543079    21.25471566
 H    132   5   2     0.950366975090    94.90543079   338.74528434
 H    133   3   1     0.950366975090    94.90541453    21.25471526
 H    134   6   2     0.950366975090    94.90541453   338.74528474
 C     39  13   4     1.355645488716   116.67570399   187.35935233
 C     40  14   5     1.355645915782   116.67573533   172.64059441
 C     41  11   3     1.355645047550   116.67573653   187.35939765
 C     42  12   6     1.355645915782   116.67573533   172.64058118
 C    131   4   1     1.357183607769   139.42594887   202.66471128
 C    132   5   2     1.357182857339   139.42596642   157.33519106
 C    133   3   1     1.357182380213   139.42596750   202.66477272
 C    134   6   2     1.357182857339   139.42598236   157.33517501
 H    143  39  13     0.950458515558   126.78802378   334.48749572
 H    144  40  14     0.950459184038   126.78791273    25.51260268
 H    145  41  11     0.950459314318   126.78799277   334.48740467
 H    146  42  12     0.950459184038   126.78791273    25.51260268
 H    147 131   4     0.950458515558   126.88598966   178.24237508
 H    148 132   5     0.950458596663   126.88606204   181.75753947
 H    149 133   3     0.950459314318   126.88599606   178.24238767
 H    150 134   6     0.950458596663   126.88606204   181.75755969
 C     39  13   4     1.339749404197   128.50765715   335.95111634
 C     40  14   5     1.339749404197   128.50765715    24.04888366
 C     41  11   3     1.339750176731   128.50761713   335.95109703
 C     42  12   6     1.339749404197   128.50765715    24.04887042
 C     35   3   1     1.319212923307   125.27350223   347.05450151
 C     36   6   2     1.319212923307   125.27350223    12.94549849
 C     37   4   1     1.319212923307   125.27350223   347.05450151
 C     38   5   2     1.319212997409   125.27356347    12.94553326
 H     31   1  15     2.019272644651   102.60728333    18.91411995
 H     32   2  16     2.019272644651   102.60728333   341.08588005
 H     33   1   2     2.019272644651   102.60728333    83.68872189
 H     34   2   1     2.019272406394   102.60733127   276.31127752
 H    163  35   3     0.949748439801   124.93933774   357.87408172
 H    164  36   6     0.949748439801   124.93933774     2.12591828
 H    165  37   4     0.949748439801   124.93933774   357.87408172
 H    166  38   5     0.949748439801   124.93930320     2.12588600
 H     23  15   1     0.821351614655   161.23152031    13.38718359
 H     24  16   2     0.821352842706   161.23154021   346.61256801
 H     25  17   1     0.821351990652   161.23157671    13.38748172
 H     26  18   2     0.821352842706   161.23154021   346.61253363
 H     27  11   3     0.821351614655    48.10475062   223.87850157
 H     28  12   6     0.821352842706    48.10474970   136.12155917
 H     29  13   4     0.821351990652    48.10473215   223.87843437
 H     30  14   5     0.821352842706    48.10474970   136.12154351
 H     39  13   4     0.830579118626    18.26084234    74.49731141
 H     40  14   5     0.830579118626    18.26084234   285.50268859
 H     41  11   3     0.830578842247    18.26080934    74.49719123
 H     42  12   6     0.830579118626    18.26084234   285.50267535
 H     43  35   3     0.830579118626   162.98132591    11.41217020
 H     44  36   6     0.830579118626   162.98132591   348.58782980
 H     45  37   4     0.830578842247   162.98124598    11.41234044
 H     46  38   5     0.830579118626   162.98130613   348.58776822
 N    133   3   1     1.382125372207    30.79343146   199.57522833
 N      3   1   2     1.982947846651   150.79002279   126.36643319
 N    131   4   1     1.382125059328    30.79346521   199.57519538
 N      4   1   2     1.982947126725   150.79000424   352.36843862
 N      5   2   1     1.982947126725   150.79000424     7.63156138
 N    132   5   2     1.382125059328    30.79346521   160.42480462
 N      6   2   1     1.982947463792   150.79004257   233.63360352
 N    134   6   2     1.382125804388    30.79346875   160.42477694
 O      7   1   2     1.420986860112    67.46389479    47.89448963
 O      7   1   2     1.422385820935   129.93573979   145.17145955
[...]
Atom 221C    basis set group =>   5
Atom 222C    basis set group =>   5
Atom 223C    basis set group =>   5
Atom 224C    basis set group =>   5
Atom 225C    basis set group =>   5
Atom 226C    basis set group =>   5
Atom 227C    basis set group =>   5
Atom 228C    basis set group =>   5
Atom 229C    basis set group =>   5
Atom 230C    basis set group =>   5
Atom 231C    basis set group =>   5
Atom 232C    basis set group =>   5
Atom 233C    basis set group =>   5
Atom 234N    basis set group =>   3
Atom 235N    basis set group =>   3
Atom 236N    basis set group =>   3
Atom 237N    basis set group =>   3
Atom 238N    basis set group =>   3
Atom 239N    basis set group =>   3
Atom 240N    basis set group =>   3
Atom 241N    basis set group =>   3
Atom 242N    basis set group =>   3
Atom 243N    basis set group =>   3
Atom 244N    basis set group =>   3
Atom 245N    basis set group =>   3
Atom 246H    basis set group =>   6
Atom 247H    basis set group =>   6
Atom 248H    basis set group =>   6
Atom 249H    basis set group =>   6
Atom 250C    basis set group =>   5
Atom 251C    basis set group =>   5
Atom 252C    basis set group =>   5
Atom 253C    basis set group =>   5
Atom 254C    basis set group =>   5
Atom 255C    basis set group =>   5
Atom 256C    basis set group =>   5
Atom 257C    basis set group =>   5
Atom 258C    basis set group =>   5
Atom 259C    basis set group =>   5
Atom 260C    basis set group =>   5
Atom 261C    basis set group =>   5
Atom 262N    basis set group =>   3
Atom 263H    basis set group =>   6
Atom 264H    basis set group =>   6
Atom 265N    basis set group =>   3
Atom 266H    basis set group =>   6
Atom 267N    basis set group =>   3
Atom 268N    basis set group =>   3
Atom 269H    basis set group =>   6
Atom 270H    basis set group =>   6
Atom 271C    basis set group =>   5
Atom 272N    basis set group =>   3
Atom 273N    basis set group =>   3
Atom 274H    basis set group =>   6
Atom 275C    basis set group =>   5
Atom 276N    basis set group =>   3
Atom 277H    basis set group =>   6
Atom 278C    basis set group =>   5
Atom 279H    basis set group =>   6
Atom 280C    basis set group =>   5
Atom 281N    basis set group =>   3
Atom 282H    basis set group =>   6
Atom 283H    basis set group =>   6
Atom 284H    basis set group =>   6
Atom 285H    basis set group =>   6
Atom 286H    basis set group =>   6
Atom 287H    basis set group =>   6
Atom 288H    basis set group =>   6
Atom 289H    basis set group =>   6
Atom 290H    basis set group =>   6
Atom 291H    basis set group =>   6
Atom 292H    basis set group =>   6
Atom 293H    basis set group =>   6
Atom 294H    basis set group =>   6
Atom 295H    basis set group =>   6
Atom 296H    basis set group =>   6
Atom 297H    basis set group =>   6
Atom 298H    basis set group =>   6
Atom 299C    basis set group =>   5
Atom 300H    basis set group =>   6
Atom 301H    basis set group =>   6
Atom 302N    basis set group =>   3
Atom 303H    basis set group =>   6
Atom 304H    basis set group =>   6
Atom 305C    basis set group =>   5
Atom 306H    basis set group =>   6
Atom 307N    basis set group =>   3
Atom 308C    basis set group =>   5
Atom 309H    basis set group =>   6
Atom 310N    basis set group =>   3
Atom 311H    basis set group =>   6
Atom 312H    basis set group =>   6
Atom 313H    basis set group =>   6
Atom 314C    basis set group =>   5
Atom 315N    basis set group =>   3
Atom 316H    basis set group =>   6
Atom 317H    basis set group =>   6
Atom 318H    basis set group =>   6
Atom 319H    basis set group =>   6
Atom 320H    basis set group =>   6
Atom 321H    basis set group =>   6
Atom 322H    basis set group =>   6
Atom 323H    basis set group =>   6
Atom 324H    basis set group =>   6
Atom 325H    basis set group =>   6
Atom 326H    basis set group =>   6
Atom 327H    basis set group =>   6
Atom 328H    basis set group =>   6
Atom 329H    basis set group =>   6
Atom 330H    basis set group =>   6
Atom 331H    basis set group =>   6
Atom 332H    basis set group =>   6
Atom 333H    basis set group =>   6
------------------------------------------------------------------------------
                             ORCA STARTUP CALCULATIONS
                           -- RI-GTO INTEGRALS CHOSEN --
------------------------------------------------------------------------------
------------------------------------------------------------------------------
                   ___                                                        
                  /   \      - P O W E R E D   B Y -                         
                 /     \                                                     
                 |  |  |   _    _      __       _____    __    __             
                 |  |  |  | |  | |    /  \     |  _  \  |  |  /  |          
                  \  \/   | |  | |   /    \    | | | |  |  | /  /          
                 / \  \   | |__| |  /  /\  \   | |_| |  |  |/  /          
                |  |  |   |  __  | /  /__\  \  |    /   |      \           
                |  |  |   | |  | | |   __   |  |    \   |  |\   \          
                \     /   | |  | | |  |  |  |  | |\  \  |  | \   \       
                 \___/    |_|  |_| |__|  |__|  |_| \__\ |__|  \__/        
                                                                              
                      - O R C A' S   B I G   F R I E N D -                    
                                      &                                       
                       - I N T E G R A L  F E E D E R -                       
                                                                              
 v1 FN, 2020, v2 2021, v3 2022-2024                                           
------------------------------------------------------------------------------


----------------------
SHARK INTEGRAL PACKAGE
----------------------

Number of atoms                             ...    334
Number of basis functions                   ...   3730
Number of shells                            ...   1690
Maximum angular momentum                    ...      3
Integral batch strategy                     ... SHARK/LIBINT Hybrid
RI-J (if used) integral strategy            ... SPLIT-RIJ (Revised 2003 algorithm where possible)
Printlevel                                  ...      1
Contraction scheme used                     ... SEGMENTED contraction
Prescreening option                         ... SCHWARTZ
   Thresh                                   ... 1.000e-10
   Tcut                                     ... 1.000e-11
   Tpresel                                  ... 1.000e-11 
Coulomb Range Separation                    ... NOT USED
Exchange Range Separation                   ... NOT USED
Multipole approximations                    ... NOT USED
Finite Nucleus Model                        ... NOT USED
CABS basis                                  ... NOT available
Auxiliary Coulomb fitting basis             ... AVAILABLE
   # of basis functions in Aux-J            ...  12062
   # of shells in Aux-J                     ...   3874
   Maximum angular momentum in Aux-J        ...      4
Auxiliary J/K fitting basis                 ... NOT available
Auxiliary Correlation fitting basis         ... NOT available
Auxiliary 'external' fitting basis          ... NOT available

Checking pre-screening integrals            ... done (  0.0 sec) Dimension = 1690
   => SHARK Basis and OBASIS are compatible. Storing Pre-screening
Shell pair information
Shell pair cut-off parameter TPreSel        ...   1.0e-11
Total number of shell pairs                 ...   1428895
Shell pairs after pre-screening             ...    247308
Total number of primitive shell pairs       ...   5509605
Primitive shell pairs kept                  ...    486410
          la=0 lb=0:  78618 shell pairs
          la=1 lb=0:  94534 shell pairs
          la=1 lb=1:  28836 shell pairs
          la=2 lb=0:  26816 shell pairs
          la=2 lb=1:  15670 shell pairs
          la=2 lb=2:   1724 shell pairs
          la=3 lb=0:    632 shell pairs
          la=3 lb=1:    388 shell pairs
          la=3 lb=2:     84 shell pairs
          la=3 lb=3:      6 shell pairs

Checking whether 4 symmetric matrices of dimension 3730 fit in memory
:Max Core in MB      =   4096.00
 MB in use           =    290.26
 MB left             =   3805.74
 MB needed           =    212.35
 Data fit in memory  = YES
Calculating RI/J V-Matrix + Cholesky decomp.... done ( 16.9 sec)
Calculating Nuclear repulsion               ... done (  0.0 sec) ENN=  95256.487396294659 Eh

Diagonalization of the overlap matrix:
Smallest eigenvalue                        ... 1.294e-03
Time for diagonalization                   ...    8.764 sec
Threshold for overlap eigenvalues          ... 1.000e-07
Number of eigenvalues below threshold      ... 0
Time for construction of square roots      ...    4.705 sec
Total time needed                          ...   13.495 sec

-------------------
DFT GRID GENERATION
-------------------

General Integration Accuracy     IntAcc      ... 4.388
Radial Grid Type                 RadialGrid  ... OptM3 with GC (2021)
Angular Grid (max. ang.)         AngularGrid ... 4 (Lebedev-302)
Angular grid pruning method      GridPruning ... 4 (adaptive)
Weight generation scheme         WeightScheme... mBecke (2022)
Basis function cutoff            BFCut       ... 1.0000e-10
Integration weight cutoff        WCut        ... 1.0000e-14
Partially contracted basis set               ... off
Rotationally invariant grid construction     ... off
Angular grids for H and He will be reduced by one unit
Core-polarized basis detected: some atoms will have their core
                               angular grid increased.

Total number of grid points                  ...  1683258
Total number of batches                      ...    26480
Average number of points per batch           ...       63
Average number of grid points per atom       ...     5040

--------------------
COSX GRID GENERATION
--------------------

GRIDX 1
-------
General Integration Accuracy     IntAcc      ... 3.816
Radial Grid Type                 RadialGrid  ... OptM3 with GC (2021)
Angular Grid (max. ang.)         AngularGrid ... 1 (Lebedev-50)
Angular grid pruning method      GridPruning ... 4 (adaptive)
Weight generation scheme         WeightScheme... mBecke (2022)
Basis function cutoff            BFCut       ... 1.0000e-10
Integration weight cutoff        WCut        ... 1.0000e-14
Partially contracted basis set               ... on
Rotationally invariant grid construction     ... off
Angular grids for H and He will be reduced by one unit
Core-polarized basis detected: some atoms will have their core
                               angular grid increased.

Total number of grid points                  ...   242482
Total number of batches                      ...     2066
Average number of points per batch           ...      117
Average number of grid points per atom       ...      726
UseSFitting                                  ... on

GRIDX 2
-------
General Integration Accuracy     IntAcc      ... 4.020
Radial Grid Type                 RadialGrid  ... OptM3 with GC (2021)
Angular Grid (max. ang.)         AngularGrid ... 2 (Lebedev-110)
Angular grid pruning method      GridPruning ... 4 (adaptive)
Weight generation scheme         WeightScheme... mBecke (2022)
Basis function cutoff            BFCut       ... 1.0000e-10
Integration weight cutoff        WCut        ... 1.0000e-14
Partially contracted basis set               ... on
Rotationally invariant grid construction     ... off
Angular grids for H and He will be reduced by one unit
Core-polarized basis detected: some atoms will have their core
                               angular grid increased.

Total number of grid points                  ...   470656
Total number of batches                      ...     3831
Average number of points per batch           ...      122
Average number of grid points per atom       ...     1409
UseSFitting                                  ... on

GRIDX 3
-------
General Integration Accuracy     IntAcc      ... 4.338
Radial Grid Type                 RadialGrid  ... OptM3 with GC (2021)
Angular Grid (max. ang.)         AngularGrid ... 3 (Lebedev-194)
Angular grid pruning method      GridPruning ... 4 (adaptive)
Weight generation scheme         WeightScheme... mBecke (2022)
Basis function cutoff            BFCut       ... 1.0000e-10
Integration weight cutoff        WCut        ... 1.0000e-14
Partially contracted basis set               ... on
Rotationally invariant grid construction     ... off
Angular grids for H and He will be reduced by one unit
Core-polarized basis detected: some atoms will have their core
                               angular grid increased.

Total number of grid points                  ...   990106
Total number of batches                      ...     7917
Average number of points per batch           ...      125
Average number of grid points per atom       ...     2964
UseSFitting                                  ... on
Grids setup in 235.6 sec
Initializing property integral containers    ... done (  0.0 sec)

SHARK setup successfully completed in 281.5 seconds

Maximum memory used throughout the entire STARTUP-calculation: 1540.3 MB
-------------------------------------------------------------------------------
                                 ORCA GUESS
                   Start orbitals & Density for SCF / CASSCF
-------------------------------------------------------------------------------

------------
SCF SETTINGS
------------
Hamiltonian:
 Density Functional     Method          .... DFT(GTOs)
 Exchange Functional    Exchange        .... B88
   X-Alpha parameter    XAlpha          ....  0.666667
   Becke's b parameter  XBeta           ....  0.004200
 Correlation Functional Correlation     .... LYP
 LDA part of GGA corr.  LDAOpt          .... VWN-5
 Gradients option       PostSCFGGA      .... off
 Hybrid DFT is turned on
   Fraction HF Exchange ScalHFX         ....  0.200000
   Scaling of DF-GGA-X  ScalDFX         ....  0.720000
   Scaling of DF-GGA-C  ScalDFC         ....  0.810000
   Scaling of DF-LDA-C  ScalLDAC        ....  1.000000
   Perturbative correction              ....  0.000000
   NL short-range parameter             ....  4.800000
 RI-approximation to the Coulomb term is turned on
   Number of AuxJ basis functions       .... 12062
   RIJ-COSX (HFX calculated with COS-X)).... on


General Settings:
 Integral files         IntName         .... calc
 Hartree-Fock type      HFTyp           .... RHF
 Total Charge           Charge          ....    0
 Multiplicity           Mult            ....    1
 Number of Electrons    NEL             .... 1780
 Basis Dimension        Dim             .... 3730
 Nuclear Repulsion      ENuc            ....  95256.4873962947 Eh

Convergence Acceleration:
 AO-DIIS                CNVDIIS         .... on
   Start iteration      DIISMaxIt       ....    12
   Startup error        DIISStart       ....  0.200000
   # of expansion vecs  DIISMaxEq       ....     5
   Bias factor          DIISBfac        ....   1.050
   Max. coefficient     DIISMaxC        ....  10.000
 MO-DIIS                CNVKDIIS        .... off
 Trust-Rad. Augm. Hess. CNVTRAH         .... auto
   Auto Start mean grad. ratio tolernc. ....  1.125000
   Auto Start start iteration           ....    50
   Auto Start num. interpolation iter.  ....    10
   Max. Number of Micro iterations      ....    24
   Max. Number of Macro iterations      .... Maxiter - #DIIS iter
   Number of Davidson start vectors     ....     2
   Converg. threshold    (grad. norm)   ....   5.000e-05
   Grad. Scal. Fac. for Micro threshold ....   0.100
   Minimum threshold for Micro iter.    ....   1.000e-02
   NR start threshold (gradient norm)   ....   1.000e-04
   Initial trust radius                 ....   0.400
   Minimum AH scaling param. (alpha)    ....   1.000
   Maximum AH scaling param. (alpha)    .... 1000.000
   Quad. conv. algorithm                .... NR
   White noise on init. David. guess    .... on
   Maximum white noise                  ....   0.010
   Pseudo random numbers                .... off
   Inactive MOs                         .... canonical
   Orbital update algorithm             .... Taylor
   Preconditioner                       .... Diag
   Full preconditioner red. dimension   ....   250
 SOSCF                 CNVSOSCF           .... on
   Start iteration     SOSCFMaxIt         ....   150
   Startup grad/error  SOSCFStart         ....  0.003300
   Hessian update      SOSCFHessUp        .... L-BFGS
   Autom. constraints  SOSCFAutoConstrain .... off
 Level Shifting         CNVShift        .... on
   Level shift para.    LevelShift      ....    0.2500
   Turn off err/grad.   ShiftErr        ....    0.0010
 Zerner damping         CNVZerner       .... off
 Static damping         CNVDamp         .... on
   Fraction old density DampFac         ....    0.7000
   Max. Damping (<1)    DampMax         ....    0.9800
   Min. Damping (>=0)   DampMin         ....    0.0000
   Turn off err/grad.   DampErr         ....    0.1000

SCF Procedure:
 Maximum # iterations   MaxIter         ....   125
 SCF integral mode      SCFMode         .... Direct
   Integral package                     .... SHARK and LIBINT hybrid scheme
 Reset frequency        DirectResetFreq ....    20
 Integral Threshold     Thresh          ....  1.000e-10 Eh
 Primitive CutOff       TCut            ....  1.000e-11 Eh

Convergence Tolerance:
 Convergence Check Mode ConvCheckMode   .... Total+1el-Energy
 Convergence forced     ConvForced      .... 0
 Energy Change          TolE            ....  1.000e-06 Eh
 1-El. energy change                    ....  1.000e-03 Eh
 Orbital Gradient       TolG            ....  5.000e-05
 Orbital Rotation angle TolX            ....  5.000e-05
 DIIS Error             TolErr          ....  1.000e-06

------------------------------
INITIAL GUESS: MODEL POTENTIAL
------------------------------
Loading Hartree-Fock densities                     ... done
Calculating cut-offs                               ... done
Initializing the effective Hamiltonian             ... done
Setting up the integral package (SHARK)            ... done
Starting the Coulomb interaction                   ... done ( 156.7 sec)
Making the grid                                    ... done (  31.9 sec)
Mapping shells                                     ... done
Starting the XC term evaluation                    ... done (   8.7 sec)
  promolecular density results
     # of electrons  =   1779.929245141
     EX              =  -1922.702241640
     EC              =    -65.922506126
     EX+EC           =  -1988.624747766
Transforming the Hamiltonian                       ... done (   4.5 sec)
Diagonalizing the Hamiltonian                      ... done (   8.6 sec)
Back transforming the eigenvectors                 ... done (   2.3 sec)
Now organizing SCF variables                       ... done
                      ------------------
                      INITIAL GUESS DONE ( 214.0 sec)
                      ------------------
             **** ENERGY FILE WAS UPDATED (calc.en.tmp) ****
Finished Guess after 217.3 sec
Maximum memory used throughout the entire GUESS-calculation: 644.5 MB

-------------------------------------------------------------------------------------------
                                      ORCA LEAN-SCF
                              memory conserving SCF solver
-------------------------------------------------------------------------------------------

----------------------------------------D-I-I-S--------------------------------------------
Iteration    Energy (Eh)           Delta-E    RMSDP     MaxDP     DIISErr   Damp  Time(sec)
-------------------------------------------------------------------------------------------
               ***  Starting incremental Fock matrix formation  ***
