
                                 *****************
                                 * O   R   C   A *
                                 *****************

                                            #,                                       
                                            ###                                      
                                            ####                                     
                                            #####                                    
                                            ######                                   
                                           ########,                                 
                                     ,,################,,,,,                         
                               ,,#################################,,                 
                          ,,##########################################,,             
                       ,#########################################, ''#####,          
                    ,#############################################,,   '####,        
                  ,##################################################,,,,####,       
                ,###########''''           ''''###############################       
              ,#####''   ,,,,##########,,,,          '''####'''          '####       
            ,##' ,,,,###########################,,,                        '##       
           ' ,,###''''                  '''############,,,                           
         ,,##''                                '''############,,,,        ,,,,,,###''
      ,#''                                            '''#######################'''  
     '                                                          ''''####''''         
             ,#######,   #######,   ,#######,      ##                                
            ,#'     '#,  ##    ##  ,#'     '#,    #''#        ,####,    ,#,          
            ##       ##  ##   ,#'  ##            #'  '#       #'       ,# #          
            ##       ##  #######   ##           ,######,      #####,      #          
            '#,     ,#'  ##    ##  '#,     ,#' ,#      #,     #,   #      #          
             '#######'   ##     ##  '#######'  #'      '#     '####' #    #          



                #########################################################
                #                        -***-                          #
                #          Department of theory and spectroscopy        #
                #                                                       #
                #                      Frank Neese                      #
                #                                                       #
                #     Directorship, Architecture, Infrastructure        #
                #                    SHARK, DRIVERS                     #
                #        Core code/Algorithms in most modules           #
                #                                                       #
                #        Max Planck Institute fuer Kohlenforschung      #
                #                Kaiser Wilhelm Platz 1                 #
                #                 D-45470 Muelheim/Ruhr                 #
                #                      Germany                          #
                #                                                       #
                #                  All rights reserved                  #
                #                        -***-                          #
                #########################################################


                         Program Version 6.1.0  -  RELEASE   -
                                (GIT: $679e74b$)
                          ($2025-06-10 18:02:51 +0200$)


 With contributions from (in alphabetic order):
[Max-Planck-Institut fuer Kohlenforschung]                               
  Daniel Aravena         : Magnetic Suceptibility                        
  Michael Atanasov       : Ab Initio Ligand Field Theory (pilot matlab implementation)
  Alexander A. Auer      : GIAO ZORA, VPT2 properties, NMR spectrum      
  Ute Becker             : All parallelization in ORCA, NUMFREQ, NUMCALC 
  Giovanni Bistoni       : ED, misc. LED, open-shell LED, HFLD           
  Dmytro Bykov           : pre 5.0 version of the SCF Hessian            
  Marcos Casanova-Páez   : Triplet and SCS-CIS(D). UHF-(DLPNO)-IP/EA/STEOM-CCSD. UHF-CVS-IP/STEOM-CCSD   
  Vijay G. Chilkuri      : MRCI spin determinant printing, contributions to CSF-ICE 
  Pauline Colinet        : FMM embedding                                 
  Dipayan Datta          : RHF DLPNO-CCSD density                        
  Achintya Kumar Dutta   : EOM-CC, STEOM-CC                              
  Nicolas Foglia         : Exact transition moments, OPA infrastructure, MCD improvements    
  Dmitry Ganyushin       : Spin-Orbit,Spin-Spin,Magnetic field MRCI      
  Miquel Garcia-Rates    : C-PCM and meta-GGA Hessian, CCSD/C-PCM, Gaussian charge scheme 
  Tiago L. C. Gouveia    : GS-ROHF, GS-ROCIS                             
  Yang Guo               : DLPNO-NEVPT2, F12-NEVPT2, CIM, IAO-localization        
  Andreas Hansen         : Spin unrestricted coupled pair/coupled cluster methods 
  Ingolf Harden          : AUTO-CI MPn and infrastructure                
  Benjamin Helmich-Paris : MC-RPA, TRAH-(SCF,CASSCF), AVAS, COSX integrals, SCF dyn. polar., MC-PDFT, srDFT 
  Lee Huntington         : MR-EOM, pCC                                   
  Robert Izsak           : Overlap fitted RIJCOSX, COSX-SCS-MP3, EOM     
  Riya Kayal             : Wick's Theorem for AUTO-CI, AUTO-CI UHF-CCSDT 
  Emily Kempfer          : AUTO-CI RHF CISDT and CCSDT, approximate NEVPT4
  Christian Kollmar      : KDIIS, OOCD, Brueckner-CCSD(T), CCSD density, CASPT2, CASPT2-K, improved NEVPT2 
  Axel Koslowski         : Symmetry handling                             
  Simone Kossmann        : meta-GGA functionals, TD-DFT gradient, OOMP2, (MP2 Hessian; deprecated post 5.0) 
  Lucas Lang             : DCDCAS, Hyperfine gauge corrections, ICE-SOC+SSC
  Marvin Lechner         : AUTO-CI (C++ implementation), FIC-MRCC        
  Spencer Leger          : CASSCF response                               
  Dagmar Lenk            : GEPOL surface, SMD, ORCA-2-JSON               
  Dimitrios Liakos       : Extrapolation schemes; Compound Job, Property file
  Dimitrios Manganas     : Further ROCIS development; embedding schemes. LFT, Crystal Embedding 
  Dimitrios Pantazis     : SARC Basis sets                               
  Anastasios Papadopoulos: AUTO-CI, single reference methods and gradients 
  Taras Petrenko         : pre 6.0 DFT Hessian and TD-DFT gradient,  ECA, NRVS 
  Petra Pikulova         : Analytic Raman intensities                    
  Peter Pinski           : DLPNO-MP2, DLPNO-MP2 Gradient                 
  Shashank Vittal Rao    : ES-AILFT, MagRelax                            
  Christoph Reimann      : Effective Core Potentials                     
  Marius Retegan         : Local ZFS, SOC                                
  Christoph Riplinger    : Optimizer, TS searches, QM/MM, DLPNO-CCSD(T), (RO)-DLPNO pert. Triples 
  Michael Roemelt        : Original ROCIS implementation, recursive CI coupling coefficients
  Masaaki Saitow         : Open-shell DLPNO-CCSD energy and density      
  Barbara Sandhoefer     : DKH picture change effects                    
  Yorick L. A. Schmerwitz: GMF and freeze-and-release deltaSCF, NEB S-IDPP initial path                    
  Kantharuban Sivalingam : CASSCF convergence/infrastructure, NEVPT2, NEVPT3, NEVPT4(SD), FIC-MRCI and CEPA variants
  Bernardo de Souza      : ESD, SOC TD-DFT                               
  Georgi L. Stoychev     : AutoAux, RI-MP2 NMR, DLPNO-MP2 response, X2C  
  Van Anh Tran           : RI-MP2 g-tensors                              
  Willem Van den Heuvel  : Paramagnetic NMR                              
  Zikuan Wang            : NOTCH, Electric field optimization            
  Frank Wennmohs         : Technical directorship and infrastructure     
  Hang Xu                : AUTO-CI-Response properties                   
                                                                         
[FACCTs GmbH]                                                            
  Markus Bursch, Nicolas Foglia, Miquel Garcia-Rates, Ingolf Harden, Hagen Neugebauer, Anastasios Papadopoulos, 
  Christoph Riplinger, Bernardo de Souza, Georgi L. Stoychev                                                    
                                                                 
  APM, various basis sets, CI-OPT, improved COSX, DLPNO-Multilevel,           
  DOCKER, DRACO, updates on ESD, Fragmentator, GOAT, IRC, LR-CPCM, L-BFGS, MBIS, meta-GGA TD-DFT gradient, ML-optimized integration grids, 
  MM, NACMEs, nearIR, NEB, NEB-TS, NL-DFT gradient (VV10), 2- and 3-layer-ONIOM, interface openCOSMO-RS, QMMM,   
  Crystal-QMMM, RESP, rigid body optimization, SF, symmetry and pop. for TD-DFT, various functionals, SOLVATOR                                   
                                                                         
[Other institutions]                                                     
  V. Asgeirsson          : NEB                                           
  Christoph Bannwarth    : sTDA-DFT, sTD-DFT, PBEh-3c, B97-3c, D3        
  Giovanni Bistoni       : ETS/NOCV, ADLD/ADEX, COVALED                  
  Martin Brehm           : Molecular dynamics                            
  Ronald Cardenas        : ETS/NOCV                                      
  Martina Colucci        : COVALED                                       
  Sebastian Ehlert       : rSCAN, r2SCAN, r2SCAN-3c, D4, dhf basis sets  
  Marvin Friede          : D4 for Fr, Ra, Ac-Lr                          
  Lars Goerigk           : TD-DFT with DH, B97 family of functionals     
  Stefan Grimme          : VdW corrections, initial TS optimization, DFT functionals, gCP, sTDA/sTD-DF 
  Waldemar Hujo          : DFT-NL                                        
  H. Jonsson             : NEB                                           
  Holger Kruse           : gCP                                           
  Marcel Mueller         : wB97X-3c, vDZP basis set                      
  Hagen Neugebauer       : wr2SCAN, Native XTB                           
  Gianluca Regni         : ADLD/ADEX                                     
  Tobias Risthaus        : pre 6.0 range-separated hybrid DFT and stability analysis
  Lukas Wittmann         : regularized MP2, r2SCAN double-hybrids, wr2SCAN        
                                                                         
We gratefully acknowledge several colleagues who have allowed us to      
interface, adapt or use parts of their codes:                            
  Ed Valeev, F. Pavosevic, A. Kumar             : LibInt (2-el integral package), F12 methods 
  Garnet Chan, S. Sharma, J. Yang, R. Olivares  : DMRG                   
  Ulf Ekstrom                                   : XCFun DFT Library      
  Mihaly Kallay                                 : mrcc  (arbitrary order and MRCC methods)
  Frank Weinhold                                : gennbo (NPA and NBO analysis)           
  Simon Mueller                                 : openCOSMO-RS                            
  Christopher J. Cramer and Donald G. Truhlar   : smd solvation model                     
  S Lehtola, MJT Oliveira, MAL Marques          : LibXC Library                           
  Liviu Ungur et al                             : ANISO software                          


 Your calculation uses the libint2 library for the computation of 2-el integrals
 For citations please refer to: http://libint.valeyev.net

 Your ORCA version has been built with support for libXC version: 7.0.0
 For citations please refer to: https://libxc.gitlab.io

 This ORCA versions uses:
   CBLAS   interface :  Fast vector & matrix operations
   LAPACKE interface :  Fast linear algebra routines
   SCALAPACK package :  Parallel linear algebra routines
   Shared memory     :  Shared parallel matrices
   BLAS/LAPACK       :  OpenBLAS 0.3.29  USE64BITINT DYNAMIC_ARCH NO_AFFINITY Zen SINGLE_THREADED
        Core in use  :  Zen
   Copyright (c) 2011-2014, The OpenBLAS Project


  ***********************************
  * Starting time: Wed Sep 24 14:48:18 2025
  * Host name:     node3527.doduo.os
  * Process ID:    259900
  * Working dir.:  /kyukon/scratch/gent/489/vsc48948/Master_thesis
  ***********************************

Warning: RI is on but no J-basis has been assigned. Assigning Def2/J (nothing to worry about!)
================================================================================

----- Orbital basis set information -----
Your calculation utilizes the basis: def2-SVP
   F. Weigend and R. Ahlrichs, Phys. Chem. Chem. Phys. 7, 3297 (2005).

----- AuxJ basis set information -----
Your calculation utilizes the auxiliary basis: def2/J
   H-Rn: F. Weigend, Phys. Chem. Chem. Phys. 8, 1057 (2006).
   Fr-Lr: K. Eichkorn, F. Weigend, O. Treutler, R. Ahlrichs; Theor. Chem. Acc. 97, 119 (1997).

================================================================================
                                        WARNINGS
                       Please study these warnings very carefully!
================================================================================


================================================================================
                                       INPUT FILE
================================================================================
NAME = calc.inp
|  1> ! B3LYP def2-SVP SP
|  2> 
|  3> * xyz 0 1
|  4> Zn    3.114549    2.501846    1.165701
|  5> Zn    3.637976    7.455799    6.403295
|  6>  O    2.051823    3.457212    2.546210
|  7>  O    4.700702    6.500434    5.022785
|  8>  O    3.200974    0.649654    1.793852
|  9>  O    3.551551    9.307991    5.775144
| 10>  O    2.879734    5.125958    1.406319
| 11>  O    3.872791    4.831687    6.162676
| 12>  O    1.023581    0.370215    1.699239
| 13>  O    5.728944    9.587430    5.869756
| 14>  N    5.094956    2.796411    1.111885
| 15>  N    1.657568    7.161234    6.457110
| 16>  N    1.500199    1.341007    6.902167
| 17>  N    5.252326    8.616638    0.666829
| 18>  N    7.204905    2.288631    1.250398
| 19>  N   -0.452381    7.669014    6.318597
| 20>  N    1.341144    2.033324    4.840373
| 21>  N    5.411381    7.924321    2.728623
| 22>  C    5.964558    1.860464    1.443407
| 23>  C    0.787967    8.097182    6.125588
| 24>  C    7.144504    3.558016    0.762198
| 25>  C   -0.391979    6.399629    6.806798
| 26>  C    5.837118    3.870858    0.682723
| 27>  C    0.915407    6.086788    6.886272
| 28>  C    2.175281    4.712778    2.312328
| 29>  C    4.577244    5.244867    5.256667
| 30>  C    1.398484    5.647918    3.180492
| 31>  C    5.354041    4.309727    4.388504
| 32>  C    1.899313    2.247476    6.027191
| 33>  C    4.853212    7.710169    1.541804
| 34>  C    0.540774    0.934841    4.948609
| 35>  C    6.211751    9.022805    2.620386
| 36>  C    0.636751    0.514361    6.217930
| 37>  C    6.115774    9.443284    1.351066
| 38>  C    2.157253   -0.046806    1.924796
| 39>  C    4.595272   10.004452    5.644200
| 40>  C    1.893730    9.854467    2.403913
| 41>  C    4.858795    0.103178    5.165083
| 42>  H    5.730080    0.980851    1.782498
| 43>  H    1.022445    8.976794    5.786497
| 44>  H    2.512819    2.973136    6.226256
| 45>  H    4.239706    6.984509    1.342740
| 46>  H   -0.047572    1.971088    0.647906
| 47>  H    6.800097    7.986557    6.921089
| 48>  H    1.464989    2.509211    4.121318
| 49>  H    5.287536    7.448434    3.447677
| 50>  H   -0.171358    4.127058    0.521504
| 51>  H    6.923883    5.830587    7.047492
| 52>  H    0.010036    0.530242    4.244693
| 53>  H    6.742489    9.427403    3.324303
| 54>  H    5.476875    4.716050    0.371638
| 55>  H    1.275650    5.241595    7.197358
| 56>  H    0.170474   -0.248589    6.594109
| 57>  H    6.582050   10.206234    0.974887
| 58>  H    0.449511    5.462405    3.073012
| 59>  H    6.303014    4.495240    4.495983
| 60>  H    1.579490    6.560002    2.906494
| 61>  H    5.173035    3.397643    4.662501
| 62>  H    2.446549    9.880529    3.194116
| 63>  H    4.305976    0.077116    4.374879
| 64>  H    2.362641    9.370098    1.696969
| 65>  H    4.389884    0.587547    5.872027
| 66>  H    1.660342    5.514452    4.091042
| 67>  H    5.092183    4.443193    3.477953
| 68>  H    1.051075    9.413268    2.593895
| 69>  H    5.701450    0.544378    4.975101
| 70>  N    2.350445    2.694922   -0.666829
| 71>  N    4.402080    7.262723    8.235824
| 72>  H    7.893641    4.127058    0.521504
| 73>  H   -1.141116    5.830587    7.047492
| 74>  C    2.355958   -1.457093    2.403913
| 75>  C    4.396567   11.414738    5.165083
| 76>  C    1.695024   11.264753    1.924796
| 77>  C    5.057501   -1.307108    5.644200
| 78>  N   -0.860094    2.288631    1.250398
| 79>  N    7.612619    7.669014    6.318597
| 80>  C    1.486997    1.868276   -1.351066
| 81>  C    2.749559    3.601391   -1.541804
| 82>  C    4.002965    6.356254    9.110800
| 83>  C    5.265527    8.089369    8.920061
| 84>  H    1.513304   -1.898292    2.593895
| 85>  H    2.824869   -1.941462    1.696969
| 86>  H    2.908777   -1.431031    3.194116
| 87>  H    3.843748   11.388676    4.374879
| 88>  H    3.927656   11.899107    5.872027
| 89>  H    5.239221   11.855938    4.975101
| 90>  O    0.561352   11.681775    1.699239
| 91>  O    2.738746   11.961214    1.793852
| 92>  O    4.013779   -2.003569    5.775144
| 93>  O    6.191172   -1.724130    5.869756
| 94>  C   -2.100441    1.860464    1.443407
| 95>  C   -0.920496    3.558016    0.762198
| 96>  C    7.673020    6.399629    6.806798
| 97>  C    8.852966    8.097182    6.125588
| 98>  C    1.391021    2.288755   -2.620386
| 99>  H    1.020721    1.105326   -0.974887
|100>  N    2.191391    3.387239   -2.728623
|101>  H    3.363065    4.327051   -1.342740
|102>  H    3.389459    5.630594    8.911735
|103>  N    4.561134    6.570406   10.297618
|104>  H    5.731804    8.852320    8.543882
|105>  C    5.361504    7.668890   10.189382
|106>  H   -2.334919    0.980851    1.782498
|107>  N   -2.970043    2.796411    1.111885
|108>  C   -2.227881    3.870858    0.682723
|109>  C    8.980406    6.086788    6.886272
|110>  N    9.722568    7.161234    6.457110
|111>  H    9.087444    8.976794    5.786497
|112>  H    0.860283    1.884157   -3.324303
|113>  H    5.892242    8.073488   10.893298
|114>  H   -2.588125    4.716050    0.371638
|115>  H    9.340650    5.241595    7.197358
|116>  H    8.017428    1.971088    0.647906
|117>  H   -1.264903    7.986557    6.921089
|118> *
|119> 
|120>                          ****END OF INPUT****
================================================================================

                       ****************************
                       * Single Point Calculation *
                       ****************************

---------------------------------
CARTESIAN COORDINATES (ANGSTROEM)
---------------------------------
  Zn     3.114549    2.501846    1.165701
  Zn     3.637976    7.455799    6.403295
  O      2.051823    3.457212    2.546210
  O      4.700702    6.500434    5.022785
  O      3.200974    0.649654    1.793852
  O      3.551551    9.307991    5.775144
  O      2.879734    5.125958    1.406319
  O      3.872791    4.831687    6.162676
  O      1.023581    0.370215    1.699239
  O      5.728944    9.587430    5.869756
  N      5.094956    2.796411    1.111885
  N      1.657568    7.161234    6.457110
  N      1.500199    1.341007    6.902167
  N      5.252326    8.616638    0.666829
  N      7.204905    2.288631    1.250398
  N     -0.452381    7.669014    6.318597
  N      1.341144    2.033324    4.840373
  N      5.411381    7.924321    2.728623
  C      5.964558    1.860464    1.443407
  C      0.787967    8.097182    6.125588
  C      7.144504    3.558016    0.762198
  C     -0.391979    6.399629    6.806798
  C      5.837118    3.870858    0.682723
  C      0.915407    6.086788    6.886272
  C      2.175281    4.712778    2.312328
  C      4.577244    5.244867    5.256667
  C      1.398484    5.647918    3.180492
  C      5.354041    4.309727    4.388504
  C      1.899313    2.247476    6.027191
  C      4.853212    7.710169    1.541804
  C      0.540774    0.934841    4.948609
  C      6.211751    9.022805    2.620386
  C      0.636751    0.514361    6.217930
  C      6.115774    9.443284    1.351066
  C      2.157253   -0.046806    1.924796
  C      4.595272   10.004452    5.644200
  C      1.893730    9.854467    2.403913
  C      4.858795    0.103178    5.165083
  H      5.730080    0.980851    1.782498
  H      1.022445    8.976794    5.786497
  H      2.512819    2.973136    6.226256
  H      4.239706    6.984509    1.342740
  H     -0.047572    1.971088    0.647906
  H      6.800097    7.986557    6.921089
  H      1.464989    2.509211    4.121318
  H      5.287536    7.448434    3.447677
  H     -0.171358    4.127058    0.521504
  H      6.923883    5.830587    7.047492
  H      0.010036    0.530242    4.244693
  H      6.742489    9.427403    3.324303
  H      5.476875    4.716050    0.371638
  H      1.275650    5.241595    7.197358
  H      0.170474   -0.248589    6.594109
  H      6.582050   10.206234    0.974887
  H      0.449511    5.462405    3.073012
  H      6.303014    4.495240    4.495983
  H      1.579490    6.560002    2.906494
  H      5.173035    3.397643    4.662501
  H      2.446549    9.880529    3.194116
  H      4.305976    0.077116    4.374879
  H      2.362641    9.370098    1.696969
  H      4.389884    0.587547    5.872027
  H      1.660342    5.514452    4.091042
  H      5.092183    4.443193    3.477953
  H      1.051075    9.413268    2.593895
  H      5.701450    0.544378    4.975101
  N      2.350445    2.694922   -0.666829
  N      4.402080    7.262723    8.235824
  H      7.893641    4.127058    0.521504
  H     -1.141116    5.830587    7.047492
  C      2.355958   -1.457093    2.403913
  C      4.396567   11.414738    5.165083
  C      1.695024   11.264753    1.924796
  C      5.057501   -1.307108    5.644200
  N     -0.860094    2.288631    1.250398
  N      7.612619    7.669014    6.318597
  C      1.486997    1.868276   -1.351066
  C      2.749559    3.601391   -1.541804
  C      4.002965    6.356254    9.110800
  C      5.265527    8.089369    8.920061
  H      1.513304   -1.898292    2.593895
  H      2.824869   -1.941462    1.696969
  H      2.908777   -1.431031    3.194116
  H      3.843748   11.388676    4.374879
  H      3.927656   11.899107    5.872027
  H      5.239221   11.855938    4.975101
  O      0.561352   11.681775    1.699239
  O      2.738746   11.961214    1.793852
  O      4.013779   -2.003569    5.775144
  O      6.191172   -1.724130    5.869756
  C     -2.100441    1.860464    1.443407
  C     -0.920496    3.558016    0.762198
  C      7.673020    6.399629    6.806798
  C      8.852966    8.097182    6.125588
  C      1.391021    2.288755   -2.620386
  H      1.020721    1.105326   -0.974887
  N      2.191391    3.387239   -2.728623
  H      3.363065    4.327051   -1.342740
  H      3.389459    5.630594    8.911735
  N      4.561134    6.570406   10.297618
  H      5.731804    8.852320    8.543882
  C      5.361504    7.668890   10.189382
  H     -2.334919    0.980851    1.782498
  N     -2.970043    2.796411    1.111885
  C     -2.227881    3.870858    0.682723
  C      8.980406    6.086788    6.886272
  N      9.722568    7.161234    6.457110
  H      9.087444    8.976794    5.786497
  H      0.860283    1.884157   -3.324303
  H      5.892242    8.073488   10.893298
  H     -2.588125    4.716050    0.371638
  H      9.340650    5.241595    7.197358
  H      8.017428    1.971088    0.647906
  H     -1.264903    7.986557    6.921089

----------------------------
CARTESIAN COORDINATES (A.U.)
----------------------------
  NO LB      ZA    FRAG     MASS         X           Y           Z
   0 Zn   30.0000    0    65.380    5.885645    4.727804    2.202856
   1 Zn   30.0000    0    65.380    6.874778   14.089418   12.100474
   2 O     8.0000    0    15.999    3.877384    6.533184    4.811640
   3 O     8.0000    0    15.999    8.883039   12.284040    9.491688
   4 O     8.0000    0    15.999    6.048964    1.227668    3.389889
   5 O     8.0000    0    15.999    6.711459   17.589554   10.913441
   6 O     8.0000    0    15.999    5.441909    9.686657    2.657558
   7 O     8.0000    0    15.999    7.318514    9.130565   11.645770
   8 O     8.0000    0    15.999    1.934288    0.699605    3.211096
   9 O     8.0000    0    15.999   10.826135   18.117617   11.092231
  10 N     7.0000    0    14.007    9.628072    5.284451    2.101158
  11 N     7.0000    0    14.007    3.132350   13.532771   12.202170
  12 N     7.0000    0    14.007    2.834965    2.534136   13.043205
  13 N     7.0000    0    14.007    9.925458   16.283086    1.260124
  14 N     7.0000    0    14.007   13.615297    4.324886    2.362910
  15 N     7.0000    0    14.007   -0.854876   14.492336   11.940418
  16 N     7.0000    0    14.007    2.534395    3.842426    9.146979
  17 N     7.0000    0    14.007   10.226028   14.974796    5.156350
  18 C     6.0000    0    12.011   11.271381    3.515767    2.727644
  19 C     6.0000    0    12.011    1.489042   15.301456   11.575684
  20 C     6.0000    0    12.011   13.501156    6.723676    1.440345
  21 C     6.0000    0    12.011   -0.740733   12.093546   12.862984
  22 C     6.0000    0    12.011   11.030554    7.314862    1.290159
  23 C     6.0000    0    12.011    1.729869   11.502362   13.013168
  24 C     6.0000    0    12.011    4.110685    8.905860    4.369667
  25 C     6.0000    0    12.011    8.649738    9.911362    9.933661
  26 C     6.0000    0    12.011    2.642752   10.673018    6.010259
  27 C     6.0000    0    12.011   10.117671    8.144204    8.293071
  28 C     6.0000    0    12.011    3.589181    4.247114   11.389740
  29 C     6.0000    0    12.011    9.171242   14.570108    2.913587
  30 C     6.0000    0    12.011    1.021915    1.766593    9.351516
  31 C     6.0000    0    12.011   11.738508   17.050630    4.951812
  32 C     6.0000    0    12.011    1.203285    0.972001   11.750185
  33 C     6.0000    0    12.011   11.557138   17.845221    2.553145
  34 C     6.0000    0    12.011    4.076617   -0.088451    3.637337
  35 C     6.0000    0    12.011    8.683806   18.905674   10.665992
  36 C     6.0000    0    12.011    3.578631   18.622244    4.542737
  37 C     6.0000    0    12.011    9.181792    0.194978    9.760592
  38 H     1.0000    0     1.008   10.828282    1.853540    3.368433
  39 H     1.0000    0     1.008    1.932141   16.963682   10.934895
  40 H     1.0000    0     1.008    4.748540    5.618413   11.765919
  41 H     1.0000    0     1.008    8.011883   13.198809    2.537411
  42 H     1.0000    0     1.008   -0.089898    3.724817    1.224365
  43 H     1.0000    0     1.008   12.850321   15.092405   13.078963
  44 H     1.0000    0     1.008    2.768428    4.741722    7.788162
  45 H     1.0000    0     1.008    9.991995   14.075500    6.515165
  46 H     1.0000    0     1.008   -0.323820    7.799009    0.985500
  47 H     1.0000    0     1.008   13.084243   11.018213   13.317830
  48 H     1.0000    0     1.008    0.018965    1.002012    8.021307
  49 H     1.0000    0     1.008   12.741458   17.815210    6.282022
  50 H     1.0000    0     1.008   10.349794    8.912043    0.702294
  51 H     1.0000    0     1.008    2.410629    9.905179   13.601036
  52 H     1.0000    0     1.008    0.322149   -0.469765   12.461060
  53 H     1.0000    0     1.008   12.438272   19.286987    1.842269
  54 H     1.0000    0     1.008    0.849453   10.322449    5.807151
  55 H     1.0000    0     1.008   11.910970    8.494773    8.496177
  56 H     1.0000    0     1.008    2.984804   12.396607    5.492478
  57 H     1.0000    0     1.008    9.775619    6.420615    8.810850
  58 H     1.0000    0     1.008    4.623308   18.671494    6.036004
  59 H     1.0000    0     1.008    8.137115    0.145728    8.267323
  60 H     1.0000    0     1.008    4.464744   17.706919    3.206807
  61 H     1.0000    0     1.008    8.295679    1.110303   11.096523
  62 H     1.0000    0     1.008    3.137592   10.420804    7.730949
  63 H     1.0000    0     1.008    9.622831    8.396418    6.572379
  64 H     1.0000    0     1.008    1.986244   17.788499    4.901751
  65 H     1.0000    0     1.008   10.774179    1.028725    9.401578
  66 N     7.0000    0    14.007    4.441697    5.092665   -1.260124
  67 N     7.0000    0    14.007    8.318726   13.724557   15.563452
  68 H     1.0000    0     1.008   14.916820    7.799009    0.985500
  69 H     1.0000    0     1.008   -2.156397   11.018213   13.317830
  70 C     6.0000    0    12.011    4.452115   -2.753507    4.542737
  71 C     6.0000    0    12.011    8.308308   21.570729    9.760592
  72 C     6.0000    0    12.011    3.203131   21.287298    3.637337
  73 C     6.0000    0    12.011    9.557292   -2.470076   10.665992
  74 N     7.0000    0    14.007   -1.625342    4.324886    2.362910
  75 N     7.0000    0    14.007   14.385765   14.492336   11.940418
  76 C     6.0000    0    12.011    2.810017    3.530530   -2.553145
  77 C     6.0000    0    12.011    5.195913    6.805643   -2.913587
  78 C     6.0000    0    12.011    7.564508   12.011579   17.216917
  79 C     6.0000    0    12.011    9.950404   15.286692   16.856472
  80 H     1.0000    0     1.008    2.859730   -3.587252    4.901751
  81 H     1.0000    0     1.008    5.338229   -3.668831    3.206807
  82 H     1.0000    0     1.008    5.496792   -2.704257    6.036004
  83 H     1.0000    0     1.008    7.263631   21.521479    8.267323
  84 H     1.0000    0     1.008    7.422194   22.486053   11.096523
  85 H     1.0000    0     1.008    9.900693   22.404476    9.401578
  86 O     8.0000    0    15.999    1.060802   22.075356    3.211096
  87 O     8.0000    0    15.999    5.175480   22.603419    3.389889
  88 O     8.0000    0    15.999    7.584943   -3.786197   10.913441
  89 O     8.0000    0    15.999   11.699620   -3.258134   11.092231
  90 C     6.0000    0    12.011   -3.969258    3.515767    2.727644
  91 C     6.0000    0    12.011   -1.739485    6.723676    1.440345
  92 C     6.0000    0    12.011   14.499906   12.093546   12.862984
  93 C     6.0000    0    12.011   16.729681   15.301456   11.575684
  94 C     6.0000    0    12.011    2.628649    4.325120   -4.951812
  95 H     1.0000    0     1.008    1.928883    2.088763   -1.842269
  96 N     7.0000    0    14.007    4.141129    6.400954   -5.156350
  97 H     1.0000    0     1.008    6.355272    8.176941   -2.537411
  98 H     1.0000    0     1.008    6.405149   10.640281   16.840739
  99 N     7.0000    0    14.007    8.619294   12.416268   19.459678
 100 H     1.0000    0     1.008   10.831540   16.728460   16.145597
 101 C     6.0000    0    12.011   10.131774   14.492102   19.255141
 102 H     1.0000    0     1.008   -4.412357    1.853540    3.368433
 103 N     7.0000    0    14.007   -5.612568    5.284451    2.101158
 104 C     6.0000    0    12.011   -4.210085    7.314862    1.290159
 105 C     6.0000    0    12.011   16.970508   11.502362   13.013168
 106 N     7.0000    0    14.007   18.372991   13.532771   12.202170
 107 H     1.0000    0     1.008   17.172780   16.963682   10.934895
 108 H     1.0000    0     1.008    1.625699    3.560541   -6.282022
 109 H     1.0000    0     1.008   11.134724   15.256681   20.585350
 110 H     1.0000    0     1.008   -4.890847    8.912043    0.702294
 111 H     1.0000    0     1.008   17.651270    9.905179   13.601036
 112 H     1.0000    0     1.008   15.150743    3.724817    1.224365
 113 H     1.0000    0     1.008   -2.390320   15.092405   13.078963

--------------------------------
INTERNAL COORDINATES (ANGSTROEM)
--------------------------------
 Zn     0   0   0     0.000000000000     0.00000000     0.00000000
 Zn     1   0   0     7.228278983228     0.00000000     0.00000000
 O      1   2   0     1.986936295937    37.41550815     0.00000000
 O      2   1   3     1.986936509907    37.41551436   180.00006555
 O      1   2   4     1.957717590535   114.37609878    97.49821715
 O      2   1   3     1.957717590535   114.37609878   262.50184841
 O      3   1   2     2.183918800761    78.57961764    56.32797538
 O      4   2   1     2.183919564867    78.57959798   303.67208053
 O      5   1   2     2.197288795525    93.59810607   100.40730966
 O      6   2   1     2.197288752466    93.59811452   259.59271503
 N      1   2   6     2.002917019432    81.20352818    87.38960775
 N      2   1   3     2.002917981325    81.20350937   355.11221746
 N      8   4   2     4.284960513231   157.28693175   114.72303123
 N      7   3   1     4.284960340652   157.28691173   245.27693957
 N     11   1   2     2.174605978602   157.41493470   119.14047538
 N     12   2   1     2.174605978602   157.41494556   240.85945474
 N     13   8   4     2.180732863042    67.57939935     2.51424023
 N     14   7   3     2.180732863042    67.57941208   357.48580716
 C     11   1   2     1.319890624899   122.71110624   114.05430714
 C     12   2   1     1.319890675166   122.71105950   245.94565706
 C     15  11   1     1.361369089933    73.52376403   172.07190488
 C     16  12   2     1.361369492911    73.52372367   187.92820902
 C     21  15  11     1.346641951517   106.31121186     0.23400310
 C     22  16  12     1.346641660188   106.31119845   359.76597160
 C      7   3   1     1.219763931952    30.06475165   177.90635055
 C      8   4   2     1.219763931952    30.06476854   182.09366500
 C     25   7   3     1.493857131624   121.32785781   181.19497054
 C     26   8   4     1.493856550469   121.32783802   178.80499912
 C     13   8   4     1.321575209185    32.83505634     2.97943232
 C     14   7   3     1.321574547115    32.83503841   357.02063109
 C     17  13   8     1.363441260152    73.26083359   180.43525584
 C     18  14   7     1.363442145206    73.26078935   179.56475494
 C     31  17  13     1.340593456634   106.60890423     0.21651732
 C     32  18  14     1.340592196147   106.60892501   359.78346779
 C      9   5   1     1.228818407363    28.48258888   178.87228215
 C     10   6   2     1.228818563175    28.48262688   181.12779273
 C     30  14   7     3.754967316637    89.90480302   271.29105157
 C     29  13   8     3.754967087045    89.90480291    88.70894809
 H     19  11   1     0.971432791568   124.80132467   356.51689207
 H     20  12   2     0.971431886088   124.80136997     3.48318451
 H     29  13   8     0.970875337961   124.59340164     0.45520559
 H     30  14   7     0.970875132925   124.59348805   359.54477927
 H      9   5   1     2.194416594092   114.30284373    11.50919102
 H     10   6   2     2.194416594092   114.30283053   348.49079729
 H     17  13   8     0.871117738207   160.64483334     0.55913558
 H     18  14   7     0.871116912768   160.64480027   359.44091163
 H     43   9   5     2.163216836172   141.53643521   313.43803574
 H     44  10   6     2.163216894605   141.53645366    46.56195845
 H     31  17  13     0.969990160002   126.84434569   180.65842492
 H     32  18  14     0.969990468580   126.84422263   179.34161522
 H     23  21  15     0.969999182030   125.58481342   179.73861013
 H     24  22  16     0.970000374069   125.58473070   180.26137958
 H     33  31  17     0.970060608040   125.41162460   179.49709581
 H     34  32  18     0.970060127372   125.41162669   180.50285739
 H     27  25   7     0.972890938542   108.88332656   117.85177181
 H     28  26   8     0.972890828068   108.88337706   242.14818636
 H     27  25   7     0.969399452804   109.12459555   358.63571742
 H     28  26   8     0.969399170157   109.12465691     1.36434594
 H     37  30  14     0.964732530712    75.63195091   248.80085835
 H     38  29  13     0.964733349802    75.63196365   111.19919319
 H     37  30  14     0.976862668556    34.14371041    59.43977773
 H     38  29  13     0.976862668556    34.14372491   300.56025784
 H     27  25   7     0.956809326784   108.87033765   238.03650303
 H     28  26   8     0.956810278436   108.87032399   121.96351964
 H     37  30  14     0.969957301612   118.02950453   142.98421545
 H     38  29  13     0.969957756477   118.02945049   217.01580416
 N      1   2   6     1.994818153490   128.83287891   338.91595777
 N      2   1   3     1.994817234845   128.83287343   103.58590340
 H     21  15  11     0.971055427959   126.94646931   180.04914030
 H     22  16  12     0.971055427959   126.94642898   179.95090198
 C     35   9   5     1.502646398553   119.93602833   179.14220189
 C     36  10   6     1.502645460017   119.93606317   180.85790097
 C     37  30  14     1.502645592254   124.53952586   351.16708598
 C     38  29  13     1.502645592254   124.53953418     8.83295339
 N     43   9   5     1.060199116863   108.68309074   229.11973328
 N     44  10   6     1.060199116863   108.68309074   130.88029137
 C     67   1   2     1.377340310232   129.67293052   226.01574190
 C     67   1   2     1.321574547115   123.98086473    55.84140859
 C     68   2   1     1.321575511184   123.98085942   304.15852250
 C     68   2   1     1.377339683337   129.67293480   133.98430118
 H     71  35   9     0.969956432857   111.99201112   353.30344015
 H     71  35   9     0.976862668556   107.34313581   113.47638049
 H     71  35   9     0.964732530712   108.15489717   231.34486586
 H     72  36  10     0.964733349802   108.15491397   128.65502494
 H     72  36  10     0.976862668556   107.34312718   246.52354804
 H     72  36  10     0.969956887722   111.99205581     6.69645943
 O     73  37  30     1.228818746731   119.93611308   146.58509299
 O     73  37  30     1.261570397933   116.21998465   325.79084477
 O     74  38  29     1.261570397933   116.21998465    34.20914030
 O     74  38  29     1.228817640605   119.93611851   213.41484508
 C     75  43   9     1.326288103837   134.64671980   276.29041367
 C     47  43   9     0.971056199426    56.33212873   239.28708776
 C     48  44  10     0.971055427959    56.33208749   120.71293497
 C     76  44  10     1.326288426668   134.64668784    83.70955049
 C     77  67   1     1.340592124554   109.08708554   188.79859590
 H     77  67   1     0.970060127372   125.50106097     8.95418421
 N     78  67   1     1.328891242386   110.72648790   171.95192033
 H     78  67   1     0.970875132925   124.59348805   351.65267472
 H     79  68   2     0.970875337961   124.59342589     8.34741643
 N     79  68   2     1.328890769322   110.72645728   188.04805803
 H     80  68   2     0.970061394537   125.50109065   351.04573949
 C     80  68   2     1.340593142982   109.08712717   171.20139736
 H     91  75  43     0.971432791568   124.66989630    60.55985121
 N     91  75  43     1.319890624899   110.52874390   240.49433853
 C     92  47  43     1.346640980668   126.74206076   201.10840218
 C     93  48  44     1.346641660188   126.74208691   158.89164627
 N     94  76  44     1.319891334009   110.52867948   119.50570874
 H     94  76  44     0.971431886088   124.66994800   299.44013799
 H     95  77  67     0.969990468580   126.54519920   179.21246840
 H    102  80  68     0.969989742886   126.54519680   180.78748846
 H    105  92  47     0.969999553415   125.58487836   359.92298530
 H    106  93  48     0.970000745454   125.58478552     0.07694068
 H     15  11   1     1.060199883249   141.01768966    92.67307610
 H     16  12   2     1.060199116863   141.01765748   267.32701648

---------------------------
INTERNAL COORDINATES (A.U.)
---------------------------
 Zn     0   0   0     0.000000000000     0.00000000     0.00000000
 Zn     1   0   0    13.659467697879     0.00000000     0.00000000
 O      1   2   0     3.754765444869    37.41550815     0.00000000
 O      2   1   3     3.754765849213    37.41551436   180.00006555
 O      1   2   4     3.699550093671   114.37609878    97.49821715
 O      2   1   3     3.699550093671   114.37609878   262.50184841
 O      3   1   2     4.127008432160    78.57961764    56.32797538
 O      4   2   1     4.127009876112    78.57959798   303.67208053
 O      5   1   2     4.152274060676    93.59810607   100.40730966
 O      6   2   1     4.152273979306    93.59811452   259.59271503
 N      1   2   6     3.784964635696    81.20352818    87.38960775
 N      2   1   3     3.784966453410    81.20350937   355.11221746
 N      8   4   2     8.097401864672   157.28693175   114.72303123
 N      7   3   1     8.097401538547   157.28691173   245.27693957
 N     11   1   2     4.109409748745   157.41493470   119.14047538
 N     12   2   1     4.109409748745   157.41494556   240.85945474
 N     13   8   4     4.120987882391    67.57939935     2.51424023
 N     14   7   3     4.120987882391    67.57941208   357.48580716
 C     11   1   2     2.494231807790   122.71110624   114.05430714
 C     12   2   1     2.494231902779   122.71105950   245.94565706
 C     15  11   1     2.572614747160    73.52376403   172.07190488
 C     16  12   2     2.572615508678    73.52372367   187.92820902
 C     21  15  11     2.544784488816   106.31121186     0.23400310
 C     22  16  12     2.544783938284   106.31119845   359.76597160
 C      7   3   1     2.305019779423    30.06475165   177.90635055
 C      8   4   2     2.305019779423    30.06476854   182.09366500
 C     25   7   3     2.822980861975   121.32785781   181.19497054
 C     26   8   4     2.822979763750   121.32783802   178.80499912
 C     13   8   4     2.497415210740    32.83505634     2.97943232
 C     14   7   3     2.497413959608    32.83503841   357.02063109
 C     17  13   8     2.576530581376    73.26083359   180.43525584
 C     18  14   7     2.576532253886    73.26078935   179.56475494
 C     31  17  13     2.533354489965   106.60890423     0.21651732
 C     32  18  14     2.533352107990   106.60892501   359.78346779
 C      9   5   1     2.322130258237    28.48258888   178.87228215
 C     10   6   2     2.322130552680    28.48262688   181.12779273
 C     30  14   7     7.095859870268    89.90480302   271.29105157
 C     29  13   8     7.095859436403    89.90480291    88.70894809
 H     19  11   1     1.835741933575   124.80132467   356.51689207
 H     20  12   2     1.835740222465   124.80136997     3.48318451
 H     29  13   8     1.834688498925   124.59340164     0.45520559
 H     30  14   7     1.834688111463   124.59348805   359.54477927
 H      9   5   1     4.146846386566   114.30284373    11.50919102
 H     10   6   2     4.146846386566   114.30283053   348.49079729
 H     17  13   8     1.646173955612   160.64483334     0.55913558
 H     18  14   7     1.646172395758   160.64480027   359.44091163
 H     43   9   5     4.087887388654   141.53643521   313.43803574
 H     44  10   6     4.087887499075   141.53645366    46.56195845
 H     31  17  13     1.833015755003   126.84434569   180.65842492
 H     32  18  14     1.833016338131   126.84422263   179.34161522
 H     23  21  15     1.833032804163   125.58481342   179.73861013
 H     24  22  16     1.833035056792   125.58473070   180.26137958
 H     33  31  17     1.833148882500   125.41162460   179.49709581
 H     34  32  18     1.833147974170   125.41162669   180.50285739
 H     27  25   7     1.838497432019   108.88332656   117.85177181
 H     28  26   8     1.838497223253   108.88337706   242.14818636
 H     27  25   7     1.831899480172   109.12459555   358.63571742
 H     28  26   8     1.831898946047   109.12465691     1.36434594
 H     37  30  14     1.823080275530    75.63195091   248.80085835
 H     38  29  13     1.823081823387    75.63196365   111.19919319
 H     37  30  14     1.846002914022    34.14371041    59.43977773
 H     38  29  13     1.846002914022    34.14372491   300.56025784
 H     27  25   7     1.808107590002   108.87033765   238.03650303
 H     28  26   8     1.808109388365   108.87032399   121.96351964
 H     37  30  14     1.832953661644   118.02950453   142.98421545
 H     38  29  13     1.832954521213   118.02945049   217.01580416
 N      1   2   6     3.769659997070   128.83287891   338.91595777
 N      2   1   3     3.769658261082   128.83287343   103.58590340
 H     21  15  11     1.835028819701   126.94646931   180.04914030
 H     22  16  12     1.835028819701   126.94642898   179.95090198
 C     35   9   5     2.839590169387   119.93602833   179.14220189
 C     36  10   6     2.839588395812   119.93606317   180.85790097
 C     37  30  14     2.839588645704   124.53952586   351.16708598
 C     38  29  13     2.839588645704   124.53953418     8.83295339
 N     43   9   5     2.003485978296   108.68309074   229.11973328
 N     44  10   6     2.003485978296   108.68309074   130.88029137
 C     67   1   2     2.602795979548   129.67293052   226.01574190
 C     67   1   2     2.497413959608   123.98086473    55.84140859
 C     68   2   1     2.497415781435   123.98085942   304.15852250
 C     68   2   1     2.602794794888   129.67293480   133.98430118
 H     71  35   9     1.832952019935   111.99201112   353.30344015
 H     71  35   9     1.846002914022   107.34313581   113.47638049
 H     71  35   9     1.823080275530   108.15489717   231.34486586
 H     72  36  10     1.823081823387   108.15491397   128.65502494
 H     72  36  10     1.846002914022   107.34312718   246.52354804
 H     72  36  10     1.832952879506   111.99205581     6.69645943
 O     73  37  30     2.322130899550   119.93611308   146.58509299
 O     73  37  30     2.384022550756   116.21998465   325.79084477
 O     74  38  29     2.384022550756   116.21998465    34.20914030
 O     74  38  29     2.322128809274   119.93611851   213.41484508
 C     75  43   9     2.506321290929   134.64671980   276.29041367
 C     47  43   9     1.835030277562    56.33212873   239.28708776
 C     48  44  10     1.835028819701    56.33208749   120.71293497
 C     76  44  10     2.506321900992   134.64668784    83.70955049
 C     77  67   1     2.533351972699   109.08708554   188.79859590
 H     77  67   1     1.833147974170   125.50106097     8.95418421
 N     78  67   1     2.511240509875   110.72648790   171.95192033
 H     78  67   1     1.834688111463   124.59348805   351.65267472
 H     79  68   2     1.834688498925   124.59342589     8.34741643
 N     79  68   2     2.511239615914   110.72645728   188.04805803
 H     80  68   2     1.833150368765   125.50109065   351.04573949
 C     80  68   2     2.533353897249   109.08712717   171.20139736
 H     91  75  43     1.835741933575   124.66989630    60.55985121
 N     91  75  43     2.494231807790   110.52874390   240.49433853
 C     92  47  43     2.544782654177   126.74206076   201.10840218
 C     93  48  44     2.544783938284   126.74208691   158.89164627
 N     94  76  44     2.494233147813   110.52867948   119.50570874
 H     94  76  44     1.835740222465   124.66994800   299.44013799
 H     95  77  67     1.833016338131   126.54519920   179.21246840
 H    102  80  68     1.833014966767   126.54519680   180.78748846
 H    105  92  47     1.833033505980   125.58487836   359.92298530
 H    106  93  48     1.833035758607   125.58478552     0.07694068
 H     15  11   1     2.003487426557   141.01768966    92.67307610
 H     16  12   2     2.003485978296   141.01765748   267.32701648

---------------------
BASIS SET INFORMATION
---------------------
There are 5 groups of distinct atoms

 Group   1 Type Zn  : 14s9p5d1f contracted to 5s3p2d1f pattern {63311/531/41/1}
 Group   2 Type O   : 7s4p1d contracted to 3s2p1d pattern {511/31/1}
 Group   3 Type N   : 7s4p1d contracted to 3s2p1d pattern {511/31/1}
 Group   4 Type C   : 7s4p1d contracted to 3s2p1d pattern {511/31/1}
 Group   5 Type H   : 4s1p contracted to 2s1p pattern {31/1}

Atom   0Zn   basis set group =>   1
Atom   1Zn   basis set group =>   1
Atom   2O    basis set group =>   2
Atom   3O    basis set group =>   2
Atom   4O    basis set group =>   2
Atom   5O    basis set group =>   2
Atom   6O    basis set group =>   2
Atom   7O    basis set group =>   2
Atom   8O    basis set group =>   2
Atom   9O    basis set group =>   2
Atom  10N    basis set group =>   3
Atom  11N    basis set group =>   3
Atom  12N    basis set group =>   3
Atom  13N    basis set group =>   3
Atom  14N    basis set group =>   3
Atom  15N    basis set group =>   3
Atom  16N    basis set group =>   3
Atom  17N    basis set group =>   3
Atom  18C    basis set group =>   4
Atom  19C    basis set group =>   4
Atom  20C    basis set group =>   4
Atom  21C    basis set group =>   4
Atom  22C    basis set group =>   4
Atom  23C    basis set group =>   4
Atom  24C    basis set group =>   4
Atom  25C    basis set group =>   4
Atom  26C    basis set group =>   4
Atom  27C    basis set group =>   4
Atom  28C    basis set group =>   4
Atom  29C    basis set group =>   4
Atom  30C    basis set group =>   4
Atom  31C    basis set group =>   4
Atom  32C    basis set group =>   4
Atom  33C    basis set group =>   4
Atom  34C    basis set group =>   4
Atom  35C    basis set group =>   4
Atom  36C    basis set group =>   4
Atom  37C    basis set group =>   4
Atom  38H    basis set group =>   5
Atom  39H    basis set group =>   5
Atom  40H    basis set group =>   5
Atom  41H    basis set group =>   5
Atom  42H    basis set group =>   5
Atom  43H    basis set group =>   5
Atom  44H    basis set group =>   5
Atom  45H    basis set group =>   5
Atom  46H    basis set group =>   5
Atom  47H    basis set group =>   5
Atom  48H    basis set group =>   5
Atom  49H    basis set group =>   5
Atom  50H    basis set group =>   5
Atom  51H    basis set group =>   5
Atom  52H    basis set group =>   5
Atom  53H    basis set group =>   5
Atom  54H    basis set group =>   5
Atom  55H    basis set group =>   5
Atom  56H    basis set group =>   5
Atom  57H    basis set group =>   5
Atom  58H    basis set group =>   5
Atom  59H    basis set group =>   5
Atom  60H    basis set group =>   5
Atom  61H    basis set group =>   5
Atom  62H    basis set group =>   5
Atom  63H    basis set group =>   5
Atom  64H    basis set group =>   5
Atom  65H    basis set group =>   5
Atom  66N    basis set group =>   3
Atom  67N    basis set group =>   3
Atom  68H    basis set group =>   5
Atom  69H    basis set group =>   5
Atom  70C    basis set group =>   4
Atom  71C    basis set group =>   4
Atom  72C    basis set group =>   4
Atom  73C    basis set group =>   4
Atom  74N    basis set group =>   3
Atom  75N    basis set group =>   3
Atom  76C    basis set group =>   4
Atom  77C    basis set group =>   4
Atom  78C    basis set group =>   4
Atom  79C    basis set group =>   4
Atom  80H    basis set group =>   5
Atom  81H    basis set group =>   5
Atom  82H    basis set group =>   5
Atom  83H    basis set group =>   5
Atom  84H    basis set group =>   5
Atom  85H    basis set group =>   5
Atom  86O    basis set group =>   2
Atom  87O    basis set group =>   2
Atom  88O    basis set group =>   2
Atom  89O    basis set group =>   2
Atom  90C    basis set group =>   4
Atom  91C    basis set group =>   4
Atom  92C    basis set group =>   4
Atom  93C    basis set group =>   4
Atom  94C    basis set group =>   4
Atom  95H    basis set group =>   5
Atom  96N    basis set group =>   3
Atom  97H    basis set group =>   5
Atom  98H    basis set group =>   5
Atom  99N    basis set group =>   3
Atom 100H    basis set group =>   5
Atom 101C    basis set group =>   4
Atom 102H    basis set group =>   5
Atom 103N    basis set group =>   3
Atom 104C    basis set group =>   4
Atom 105C    basis set group =>   4
Atom 106N    basis set group =>   3
Atom 107H    basis set group =>   5
Atom 108H    basis set group =>   5
Atom 109H    basis set group =>   5
Atom 110H    basis set group =>   5
Atom 111H    basis set group =>   5
Atom 112H    basis set group =>   5
Atom 113H    basis set group =>   5
---------------------------------
AUXILIARY/J BASIS SET INFORMATION
---------------------------------
There are 5 groups of distinct atoms

 Group   1 Type Zn  : 19s5p5d3f3g contracted to 8s5p5d2f3g pattern {121111111/11111/11111/21/111}
 Group   2 Type O   : 12s5p4d2f1g contracted to 6s4p3d1f1g pattern {711111/2111/211/2/1}
 Group   3 Type N   : 12s5p4d2f1g contracted to 6s4p3d1f1g pattern {711111/2111/211/2/1}
 Group   4 Type C   : 12s5p4d2f1g contracted to 6s4p3d1f1g pattern {711111/2111/211/2/1}
 Group   5 Type H   : 5s2p1d contracted to 3s1p1d pattern {311/2/1}

Atom   0Zn   basis set group =>   1
Atom   1Zn   basis set group =>   1
Atom   2O    basis set group =>   2
Atom   3O    basis set group =>   2
Atom   4O    basis set group =>   2
Atom   5O    basis set group =>   2
Atom   6O    basis set group =>   2
Atom   7O    basis set group =>   2
Atom   8O    basis set group =>   2
Atom   9O    basis set group =>   2
Atom  10N    basis set group =>   3
Atom  11N    basis set group =>   3
Atom  12N    basis set group =>   3
Atom  13N    basis set group =>   3
Atom  14N    basis set group =>   3
Atom  15N    basis set group =>   3
Atom  16N    basis set group =>   3
Atom  17N    basis set group =>   3
Atom  18C    basis set group =>   4
Atom  19C    basis set group =>   4
Atom  20C    basis set group =>   4
Atom  21C    basis set group =>   4
Atom  22C    basis set group =>   4
Atom  23C    basis set group =>   4
Atom  24C    basis set group =>   4
Atom  25C    basis set group =>   4
Atom  26C    basis set group =>   4
Atom  27C    basis set group =>   4
Atom  28C    basis set group =>   4
Atom  29C    basis set group =>   4
Atom  30C    basis set group =>   4
Atom  31C    basis set group =>   4
Atom  32C    basis set group =>   4
Atom  33C    basis set group =>   4
Atom  34C    basis set group =>   4
Atom  35C    basis set group =>   4
Atom  36C    basis set group =>   4
Atom  37C    basis set group =>   4
Atom  38H    basis set group =>   5
Atom  39H    basis set group =>   5
Atom  40H    basis set group =>   5
Atom  41H    basis set group =>   5
Atom  42H    basis set group =>   5
Atom  43H    basis set group =>   5
Atom  44H    basis set group =>   5
Atom  45H    basis set group =>   5
Atom  46H    basis set group =>   5
Atom  47H    basis set group =>   5
Atom  48H    basis set group =>   5
Atom  49H    basis set group =>   5
Atom  50H    basis set group =>   5
Atom  51H    basis set group =>   5
Atom  52H    basis set group =>   5
Atom  53H    basis set group =>   5
Atom  54H    basis set group =>   5
Atom  55H    basis set group =>   5
Atom  56H    basis set group =>   5
Atom  57H    basis set group =>   5
Atom  58H    basis set group =>   5
Atom  59H    basis set group =>   5
Atom  60H    basis set group =>   5
Atom  61H    basis set group =>   5
Atom  62H    basis set group =>   5
Atom  63H    basis set group =>   5
Atom  64H    basis set group =>   5
Atom  65H    basis set group =>   5
Atom  66N    basis set group =>   3
Atom  67N    basis set group =>   3
Atom  68H    basis set group =>   5
Atom  69H    basis set group =>   5
Atom  70C    basis set group =>   4
Atom  71C    basis set group =>   4
Atom  72C    basis set group =>   4
Atom  73C    basis set group =>   4
Atom  74N    basis set group =>   3
Atom  75N    basis set group =>   3
Atom  76C    basis set group =>   4
Atom  77C    basis set group =>   4
Atom  78C    basis set group =>   4
Atom  79C    basis set group =>   4
Atom  80H    basis set group =>   5
Atom  81H    basis set group =>   5
Atom  82H    basis set group =>   5
Atom  83H    basis set group =>   5
Atom  84H    basis set group =>   5
Atom  85H    basis set group =>   5
Atom  86O    basis set group =>   2
Atom  87O    basis set group =>   2
Atom  88O    basis set group =>   2
Atom  89O    basis set group =>   2
Atom  90C    basis set group =>   4
Atom  91C    basis set group =>   4
Atom  92C    basis set group =>   4
Atom  93C    basis set group =>   4
Atom  94C    basis set group =>   4
Atom  95H    basis set group =>   5
Atom  96N    basis set group =>   3
Atom  97H    basis set group =>   5
Atom  98H    basis set group =>   5
Atom  99N    basis set group =>   3
Atom 100H    basis set group =>   5
Atom 101C    basis set group =>   4
Atom 102H    basis set group =>   5
Atom 103N    basis set group =>   3
Atom 104C    basis set group =>   4
Atom 105C    basis set group =>   4
Atom 106N    basis set group =>   3
Atom 107H    basis set group =>   5
Atom 108H    basis set group =>   5
Atom 109H    basis set group =>   5
Atom 110H    basis set group =>   5
Atom 111H    basis set group =>   5
Atom 112H    basis set group =>   5
Atom 113H    basis set group =>   5
------------------------------------------------------------------------------
                             ORCA STARTUP CALCULATIONS
                           -- RI-GTO INTEGRALS CHOSEN --
------------------------------------------------------------------------------
------------------------------------------------------------------------------
                   ___                                                        
                  /   \      - P O W E R E D   B Y -                         
                 /     \                                                     
                 |  |  |   _    _      __       _____    __    __             
                 |  |  |  | |  | |    /  \     |  _  \  |  |  /  |          
                  \  \/   | |  | |   /    \    | | | |  |  | /  /          
                 / \  \   | |__| |  /  /\  \   | |_| |  |  |/  /          
                |  |  |   |  __  | /  /__\  \  |    /   |      \           
                |  |  |   | |  | | |   __   |  |    \   |  |\   \          
                \     /   | |  | | |  |  |  |  | |\  \  |  | \   \       
                 \___/    |_|  |_| |__|  |__|  |_| \__\ |__|  \__/        
                                                                              
                      - O R C A' S   B I G   F R I E N D -                    
                                      &                                       
                       - I N T E G R A L  F E E D E R -                       
                                                                              
 v1 FN, 2020, v2 2021, v3 2022-2024                                           
------------------------------------------------------------------------------


----------------------
SHARK INTEGRAL PACKAGE
----------------------

Number of atoms                             ...    114
Number of basis functions                   ...   1198
Number of shells                            ...    550
Maximum angular momentum                    ...      3
Integral batch strategy                     ... SHARK/LIBINT Hybrid
RI-J (if used) integral strategy            ... SPLIT-RIJ (Revised 2003 algorithm where possible)
Printlevel                                  ...      1
Contraction scheme used                     ... SEGMENTED contraction
Prescreening option                         ... SCHWARTZ
   Thresh                                   ... 1.000e-10
   Tcut                                     ... 1.000e-11
   Tpresel                                  ... 1.000e-11 
Coulomb Range Separation                    ... NOT USED
Exchange Range Separation                   ... NOT USED
Multipole approximations                    ... NOT USED
Finite Nucleus Model                        ... NOT USED
CABS basis                                  ... NOT available
Auxiliary Coulomb fitting basis             ... AVAILABLE
   # of basis functions in Aux-J            ...   3842
   # of shells in Aux-J                     ...   1246
   Maximum angular momentum in Aux-J        ...      4
Auxiliary J/K fitting basis                 ... NOT available
Auxiliary Correlation fitting basis         ... NOT available
Auxiliary 'external' fitting basis          ... NOT available

Checking pre-screening integrals            ... done (  0.0 sec) Dimension = 550
   => SHARK Basis and OBASIS are compatible. Storing Pre-screening
Shell pair information
Shell pair cut-off parameter TPreSel        ...   1.0e-11
Total number of shell pairs                 ...    151525
Shell pairs after pre-screening             ...     64392
Total number of primitive shell pairs       ...    569767
Primitive shell pairs kept                  ...    131400
          la=0 lb=0:  20819 shell pairs
          la=1 lb=0:  24420 shell pairs
          la=1 lb=1:   7229 shell pairs
          la=2 lb=0:   7098 shell pairs
          la=2 lb=1:   3964 shell pairs
          la=2 lb=2:    476 shell pairs
          la=3 lb=0:    228 shell pairs
          la=3 lb=1:    128 shell pairs
          la=3 lb=2:     28 shell pairs
          la=3 lb=3:      2 shell pairs

Checking whether 4 symmetric matrices of dimension 1198 fit in memory
:Max Core in MB      =   4096.00
 MB in use           =     79.27
 MB left             =   4016.73
 MB needed           =     21.92
 Data fit in memory  = YES
Calculating RI/J V-Matrix + Cholesky decomp.... done (  1.1 sec)
Calculating Nuclear repulsion               ... done (  0.0 sec) ENN=  13312.215357825342 Eh

Diagonalization of the overlap matrix:
Smallest eigenvalue                        ... 1.418e-03
Time for diagonalization                   ...    0.284 sec
Threshold for overlap eigenvalues          ... 1.000e-07
Number of eigenvalues below threshold      ... 0
Time for construction of square roots      ...    0.167 sec
Total time needed                          ...    0.454 sec

-------------------
DFT GRID GENERATION
-------------------

General Integration Accuracy     IntAcc      ... 4.388
Radial Grid Type                 RadialGrid  ... OptM3 with GC (2021)
Angular Grid (max. ang.)         AngularGrid ... 4 (Lebedev-302)
Angular grid pruning method      GridPruning ... 4 (adaptive)
Weight generation scheme         WeightScheme... mBecke (2022)
Basis function cutoff            BFCut       ... 1.0000e-10
Integration weight cutoff        WCut        ... 1.0000e-14
Partially contracted basis set               ... off
Rotationally invariant grid construction     ... off
Angular grids for H and He will be reduced by one unit
Core-polarized basis detected: some atoms will have their core
                               angular grid increased.

Total number of grid points                  ...   553674
Total number of batches                      ...     8704
Average number of points per batch           ...       63
Average number of grid points per atom       ...     4857

--------------------
COSX GRID GENERATION
--------------------

GRIDX 1
-------
General Integration Accuracy     IntAcc      ... 3.816
Radial Grid Type                 RadialGrid  ... OptM3 with GC (2021)
Angular Grid (max. ang.)         AngularGrid ... 1 (Lebedev-50)
Angular grid pruning method      GridPruning ... 4 (adaptive)
Weight generation scheme         WeightScheme... mBecke (2022)
Basis function cutoff            BFCut       ... 1.0000e-10
Integration weight cutoff        WCut        ... 1.0000e-14
Partially contracted basis set               ... on
Rotationally invariant grid construction     ... off
Angular grids for H and He will be reduced by one unit
Core-polarized basis detected: some atoms will have their core
                               angular grid increased.

Total number of grid points                  ...    77334
Total number of batches                      ...      664
Average number of points per batch           ...      116
Average number of grid points per atom       ...      678
UseSFitting                                  ... on

GRIDX 2
-------
General Integration Accuracy     IntAcc      ... 4.020
Radial Grid Type                 RadialGrid  ... OptM3 with GC (2021)
Angular Grid (max. ang.)         AngularGrid ... 2 (Lebedev-110)
Angular grid pruning method      GridPruning ... 4 (adaptive)
Weight generation scheme         WeightScheme... mBecke (2022)
Basis function cutoff            BFCut       ... 1.0000e-10
Integration weight cutoff        WCut        ... 1.0000e-14
Partially contracted basis set               ... on
Rotationally invariant grid construction     ... off
Angular grids for H and He will be reduced by one unit
Core-polarized basis detected: some atoms will have their core
                               angular grid increased.

Total number of grid points                  ...   155062
Total number of batches                      ...     1266
Average number of points per batch           ...      122
Average number of grid points per atom       ...     1360
UseSFitting                                  ... on

GRIDX 3
-------
General Integration Accuracy     IntAcc      ... 4.338
Radial Grid Type                 RadialGrid  ... OptM3 with GC (2021)
Angular Grid (max. ang.)         AngularGrid ... 3 (Lebedev-194)
Angular grid pruning method      GridPruning ... 4 (adaptive)
Weight generation scheme         WeightScheme... mBecke (2022)
Basis function cutoff            BFCut       ... 1.0000e-10
Integration weight cutoff        WCut        ... 1.0000e-14
Partially contracted basis set               ... on
Rotationally invariant grid construction     ... off
Angular grids for H and He will be reduced by one unit
Core-polarized basis detected: some atoms will have their core
                               angular grid increased.

Total number of grid points                  ...   325016
Total number of batches                      ...     2600
Average number of points per batch           ...      125
Average number of grid points per atom       ...     2851
UseSFitting                                  ... on
Grids setup in  28.7 sec
Initializing property integral containers    ... done (  0.0 sec)

SHARK setup successfully completed in  33.4 seconds

Maximum memory used throughout the entire STARTUP-calculation: 288.1 MB
-------------------------------------------------------------------------------
                                 ORCA GUESS
                   Start orbitals & Density for SCF / CASSCF
-------------------------------------------------------------------------------

------------
SCF SETTINGS
------------
Hamiltonian:
 Density Functional     Method          .... DFT(GTOs)
 Exchange Functional    Exchange        .... B88
   X-Alpha parameter    XAlpha          ....  0.666667
   Becke's b parameter  XBeta           ....  0.004200
 Correlation Functional Correlation     .... LYP
 LDA part of GGA corr.  LDAOpt          .... VWN-5
 Gradients option       PostSCFGGA      .... off
 Hybrid DFT is turned on
   Fraction HF Exchange ScalHFX         ....  0.200000
   Scaling of DF-GGA-X  ScalDFX         ....  0.720000
   Scaling of DF-GGA-C  ScalDFC         ....  0.810000
   Scaling of DF-LDA-C  ScalLDAC        ....  1.000000
   Perturbative correction              ....  0.000000
   NL short-range parameter             ....  4.800000
 RI-approximation to the Coulomb term is turned on
   Number of AuxJ basis functions       .... 3842
   RIJ-COSX (HFX calculated with COS-X)).... on


General Settings:
 Integral files         IntName         .... calc
 Hartree-Fock type      HFTyp           .... RHF
 Total Charge           Charge          ....    0
 Multiplicity           Mult            ....    1
 Number of Electrons    NEL             ....  532
 Basis Dimension        Dim             .... 1198
 Nuclear Repulsion      ENuc            ....  13312.2153578253 Eh

Convergence Acceleration:
 AO-DIIS                CNVDIIS         .... on
   Start iteration      DIISMaxIt       ....    12
   Startup error        DIISStart       ....  0.200000
   # of expansion vecs  DIISMaxEq       ....     5
   Bias factor          DIISBfac        ....   1.050
   Max. coefficient     DIISMaxC        ....  10.000
 MO-DIIS                CNVKDIIS        .... off
 Trust-Rad. Augm. Hess. CNVTRAH         .... auto
   Auto Start mean grad. ratio tolernc. ....  1.125000
   Auto Start start iteration           ....    50
   Auto Start num. interpolation iter.  ....    10
   Max. Number of Micro iterations      ....    24
   Max. Number of Macro iterations      .... Maxiter - #DIIS iter
   Number of Davidson start vectors     ....     2
   Converg. threshold    (grad. norm)   ....   5.000e-05
   Grad. Scal. Fac. for Micro threshold ....   0.100
   Minimum threshold for Micro iter.    ....   1.000e-02
   NR start threshold (gradient norm)   ....   1.000e-04
   Initial trust radius                 ....   0.400
   Minimum AH scaling param. (alpha)    ....   1.000
   Maximum AH scaling param. (alpha)    .... 1000.000
   Quad. conv. algorithm                .... NR
   White noise on init. David. guess    .... on
   Maximum white noise                  ....   0.010
   Pseudo random numbers                .... off
   Inactive MOs                         .... canonical
   Orbital update algorithm             .... Taylor
   Preconditioner                       .... Diag
   Full preconditioner red. dimension   ....   250
 SOSCF                 CNVSOSCF           .... on
   Start iteration     SOSCFMaxIt         ....   150
   Startup grad/error  SOSCFStart         ....  0.003300
   Hessian update      SOSCFHessUp        .... L-BFGS
   Autom. constraints  SOSCFAutoConstrain .... off
 Level Shifting         CNVShift        .... on
   Level shift para.    LevelShift      ....    0.2500
   Turn off err/grad.   ShiftErr        ....    0.0010
 Zerner damping         CNVZerner       .... off
 Static damping         CNVDamp         .... on
   Fraction old density DampFac         ....    0.7000
   Max. Damping (<1)    DampMax         ....    0.9800
   Min. Damping (>=0)   DampMin         ....    0.0000
   Turn off err/grad.   DampErr         ....    0.1000

SCF Procedure:
 Maximum # iterations   MaxIter         ....   125
 SCF integral mode      SCFMode         .... Direct
   Integral package                     .... SHARK and LIBINT hybrid scheme
 Reset frequency        DirectResetFreq ....    20
 Integral Threshold     Thresh          ....  1.000e-10 Eh
 Primitive CutOff       TCut            ....  1.000e-11 Eh

Convergence Tolerance:
 Convergence Check Mode ConvCheckMode   .... Total+1el-Energy
 Convergence forced     ConvForced      .... 0
 Energy Change          TolE            ....  1.000e-06 Eh
 1-El. energy change                    ....  1.000e-03 Eh
 Orbital Gradient       TolG            ....  5.000e-05
 Orbital Rotation angle TolX            ....  5.000e-05
 DIIS Error             TolErr          ....  1.000e-06

------------------------------
INITIAL GUESS: MODEL POTENTIAL
------------------------------
Loading Hartree-Fock densities                     ... done
Calculating cut-offs                               ... done
Initializing the effective Hamiltonian             ... done
Setting up the integral package (SHARK)            ... done
Starting the Coulomb interaction                   ... done (  13.8 sec)
Making the grid                                    ... done (   3.9 sec)
Mapping shells                                     ... done
Starting the XC term evaluation                    ... done (   1.8 sec)
  promolecular density results
     # of electrons  =    531.975632769
     EX              =   -543.881808367
     EC              =    -19.267316192
     EX+EC           =   -563.149124558
Transforming the Hamiltonian                       ... done (   0.2 sec)
Diagonalizing the Hamiltonian                      ... done (   0.4 sec)
Back transforming the eigenvectors                 ... done (   0.1 sec)
Now organizing SCF variables                       ... done
                      ------------------
                      INITIAL GUESS DONE (  20.3 sec)
                      ------------------
             **** ENERGY FILE WAS UPDATED (calc.en.tmp) ****
Finished Guess after  20.7 sec
Maximum memory used throughout the entire GUESS-calculation: 143.6 MB

-------------------------------------------------------------------------------------------
                                      ORCA LEAN-SCF
                              memory conserving SCF solver
-------------------------------------------------------------------------------------------

----------------------------------------D-I-I-S--------------------------------------------
Iteration    Energy (Eh)           Delta-E    RMSDP     MaxDP     DIISErr   Damp  Time(sec)
-------------------------------------------------------------------------------------------
               ***  Starting incremental Fock matrix formation  ***
    1    -6726.4992293854993477     0.00e+00  8.43e-03  3.36e+00  1.05e+00  0.700 163.9
Warning: op=0 Small HOMO/LUMO gap (  -0.895) - skipping pre-diagonalization
         LevelShift set to 0.995 Eh
         Will do a full diagonalization
    2    -6728.6726879136040225    -2.17e+00  4.17e-03  1.66e+00  2.19e-01  0.700  81.6
                               ***Turning on AO-DIIS***
    3    -6727.1332732476985257     1.54e+00  3.32e-03  1.31e+00  1.86e-01  0.700  80.2
    4    -6728.4538232605336816    -1.32e+00  2.47e-03  9.73e-01  2.48e-01  0.700  77.6
    5    -6729.5669152851405670    -1.11e+00  1.81e-03  7.11e-01  2.72e-01  0.700  74.2
    6    -6730.3994669716666976    -8.33e-01  1.32e-03  5.17e-01  2.51e-01  0.700  71.7
    7    -6731.0092496769575519    -6.10e-01  1.01e-03  3.92e-01  2.15e-01  0.700  70.4
    8    -6731.4732684035334387    -4.64e-01  7.57e-04  2.86e-01  1.50e-01  0.700  71.8
    9    -6731.8082790950684284    -3.35e-01  5.70e-04  2.05e-01  1.01e-01  0.700  70.5
   10    -6732.0467517487995792    -2.38e-01  4.36e-04  1.45e-01  6.50e-02  0.700  69.0
   11    -6732.2141962475834589    -1.67e-01  1.13e-03  3.35e-01  3.83e-02  0.000  68.0
   12    -6732.5828245465709188    -3.69e-01  2.19e-04  1.55e-02  2.23e-02  0.000  79.5
   13    -6732.5977443741758179    -1.49e-02  1.80e-04  1.41e-02  1.73e-02  0.000  63.5
   14    -6732.6069375233710161    -9.19e-03  1.25e-04  8.85e-03  8.85e-03  0.000  61.0
   15    -6732.6133653986034915    -6.43e-03  9.64e-05  6.72e-03  8.46e-03  0.000  58.9
   16    -6732.6183409475452208    -4.98e-03  7.83e-05  4.43e-03  9.02e-03  0.000  57.1
   17    -6732.6229533291189000    -4.61e-03  7.57e-05  4.39e-03  8.24e-03  0.000  56.0
   18    -6732.6266738737467676    -3.72e-03  6.38e-05  2.98e-03  8.95e-03  0.000  55.6
   19    -6732.6302547668383340    -3.58e-03  6.30e-05  3.01e-03  8.16e-03  0.000  54.5
   20    -6732.6331855769749382    -2.93e-03  5.35e-05  2.61e-03  8.54e-03  0.000  54.5
               *** Restarting incremental Fock matrix formation ***
                             ****Resetting DIIS****
Warning: op=0 Small HOMO/LUMO gap (  -0.058) - skipping pre-diagonalization
         Will do a full diagonalization
   21    -6732.6349440897865861    -1.76e-03  7.10e-04  5.59e-02  7.55e-03  0.000  97.9
   22    -6732.6085203463953803     2.64e-02  2.98e-04  2.02e-02  5.19e-02  0.000  75.7
   23    -6732.5585146005032584     5.00e-02  2.86e-04  2.10e-02  6.68e-02  0.000  68.0
   24    -6732.4765855693185586     8.19e-02  2.76e-04  1.70e-02  8.53e-02  0.000  66.5
   25    -6732.3768686239309318     9.97e-02  2.63e-04  1.51e-02  1.01e-01  0.000  65.6
   26    -6732.2754222073381243     1.01e-01  9.35e-05  9.82e-03  1.10e-01  0.700  64.9
   27    -6732.2926682392353541    -1.72e-02  1.51e-04  1.92e-02  9.73e-02  0.700  55.0
   28    -6732.3364347163260391    -4.38e-02  9.12e-04  1.27e-01  8.28e-02  0.000  58.8
   29    -6732.5702729121112498    -2.34e-01  9.93e-04  9.14e-02  8.63e-02  0.000  75.3
   30    -6732.6136480765017041    -4.34e-02  3.78e-04  3.46e-02  6.08e-02  0.000  78.1
   31    -6732.6397719572996721    -2.61e-02  2.06e-04  1.38e-02  3.63e-02  0.000  68.5
   32    -6732.6557466871672659    -1.60e-02  1.96e-04  2.20e-02  2.77e-02  0.000  64.8
   33    -6732.6739230647399381    -1.82e-02  2.78e-04  3.62e-02  1.43e-02  0.000  64.2
   34    -6732.6806215364085801    -6.70e-03  1.49e-04  1.35e-02  2.92e-02  0.000  66.0
   35    -6732.6819673932732258    -1.35e-03  8.39e-05  4.24e-03  8.75e-03  0.000  59.0
   36    -6732.6816148303405498     3.53e-04  5.58e-05  2.38e-03  1.31e-02  0.000  57.5
   37    -6732.6806295263704669     9.85e-04  5.21e-05  2.71e-03  1.45e-02  0.000  53.6
   38    -6732.6786890072689857     1.94e-03  1.03e-04  1.40e-02  1.64e-02  0.000  51.0
   39    -6732.6831100542804052    -4.42e-03  1.64e-04  2.07e-02  1.24e-02  0.000  55.7
   40    -6732.6859943745621422    -2.88e-03  1.04e-04  1.53e-02  2.14e-02  0.000  61.1
               *** Restarting incremental Fock matrix formation ***
                             ****Resetting DIIS****
Warning: op=0 Small HOMO/LUMO gap (   0.002) - skipping pre-diagonalization
         Will do a full diagonalization
   41    -6732.6868786815175554    -8.84e-04  4.14e-04  6.48e-02  1.22e-02  0.000  98.0
   42    -6732.6554732409240387     3.14e-02  1.26e-04  1.78e-02  6.43e-02  0.000  68.5
   43    -6732.6740131200676842    -1.85e-02  8.12e-05  8.05e-03  3.49e-02  0.000  58.3
   44    -6732.6816286850116740    -7.62e-03  6.77e-05  6.40e-03  2.66e-02  0.000  53.3
   45    -6732.6859968349672272    -4.37e-03  5.26e-05  5.55e-03  1.98e-02  0.000  50.5
   46    -6732.6883248240155808    -2.33e-03  1.26e-04  2.02e-02  1.42e-02  0.000  49.1
   47    -6732.6871755783286062     1.15e-03  6.76e-05  8.90e-03  2.51e-02  0.000  56.4
   48    -6732.6900053323479369    -2.83e-03  7.65e-05  1.02e-02  1.02e-02  0.000  51.9
                              *** Initializing SOSCF ***
---------------------------------------S-O-S-C-F--------------------------------------
Iteration    Energy (Eh)           Delta-E    RMSDP     MaxDP     MaxGrad    Time(sec)
--------------------------------------------------------------------------------------
   49    -6732.6912002668432251    -1.19e-03  4.58e-05  2.89e-03  1.33e-03    53.8
               *** Restarting incremental Fock matrix formation ***
   50    -6732.6922877237666398    -1.09e-03  1.17e-04  1.58e-02  3.56e-03   180.1
   51    -6732.6906716750854685     1.62e-03  7.97e-05  1.25e-02  1.12e-02   111.2
   52    -6732.6928253252808645    -2.15e-03  4.97e-05  2.82e-03  1.63e-03   101.3
   53    -6732.6930670247529633    -2.42e-04  2.20e-04  1.33e-02  1.50e-03    97.7
   54    -6732.6937572948845627    -6.90e-04  2.07e-04  1.33e-02  2.46e-03   122.6
   55    -6732.6936437560943887     1.14e-04  7.84e-05  6.95e-03  4.53e-03   123.3
   56    -6732.6940918092986976    -4.48e-04  4.05e-05  3.57e-03  6.83e-04   105.2
   57    -6732.6941535149308038    -6.17e-05  3.30e-05  2.59e-03  7.54e-04    93.8
   58    -6732.6942072394958814    -5.37e-05  4.76e-05  3.72e-03  1.09e-03    91.8
   59    -6732.6941753985411196     3.18e-05  1.85e-05  1.97e-03  1.65e-03    97.5
   60    -6732.6942520427219279    -7.66e-05  1.61e-05  1.25e-03  2.76e-04    79.2
   61    -6732.6942542167089414    -2.17e-06  1.35e-05  1.03e-03  4.41e-04    79.0
   62    -6732.6942777572985506    -2.35e-05  2.11e-05  1.52e-03  1.48e-04    77.1
   63    -6732.6942876298053307    -9.87e-06  3.80e-05  2.96e-03  2.30e-04    83.1
   64    -6732.6942975898600707    -9.96e-06  2.54e-05  2.00e-03  4.47e-04    92.3
   65    -6732.6943016735858691    -4.08e-06  1.07e-05  8.99e-04  4.46e-04    85.2
   66    -6732.6943106583057670    -8.98e-06  7.44e-06  4.15e-04  1.50e-04    74.7
   67    -6732.6943136095360387    -2.95e-06  1.03e-05  7.81e-04  1.12e-04    69.2
   68    -6732.6943165306838637    -2.92e-06  1.29e-05  1.03e-03  1.36e-04    69.4
   69    -6732.6943184407318768    -1.91e-06  6.64e-06  5.47e-04  5.35e-05    70.9
               *** Restarting incremental Fock matrix formation ***
   70    -6732.6943176291024429     8.12e-07  5.61e-06  2.96e-04  4.41e-05   173.9
                 **** Energy Check signals convergence ****

[...]
 24 C      5.8909     6.0000     0.1091     4.3680     4.3680    -0.0000
 25 C      5.8909     6.0000     0.1091     4.3680     4.3680     0.0000
 26 C      5.6971     6.0000     0.3029     3.7634     3.7634     0.0000
 27 C      5.6971     6.0000     0.3029     3.7634     3.7634    -0.0000
 28 C      5.7988     6.0000     0.2012     3.9685     3.9685     0.0000
 29 C      5.7988     6.0000     0.2012     3.9685     3.9685    -0.0000
 30 C      5.8477     6.0000     0.1523     3.8491     3.8491     0.0000
 31 C      5.8477     6.0000     0.1523     3.8491     3.8491    -0.0000
 32 C      5.8756     6.0000     0.1244     3.9623     3.9623    -0.0000
 33 C      5.8756     6.0000     0.1244     3.9622     3.9622    -0.0000
 34 C      5.9042     6.0000     0.0958     4.4002     4.4002    -0.0000
 35 C      5.9043     6.0000     0.0957     4.4002     4.4002    -0.0000
 36 C      5.7556     6.0000     0.2444     3.7896     3.7896     0.0000
 37 C      5.7556     6.0000     0.2444     3.7896     3.7896     0.0000
 38 H      1.0280     1.0000    -0.0280     1.0582     1.0582    -0.0000
 39 H      1.0280     1.0000    -0.0280     1.0582     1.0582    -0.0000
 40 H      1.0684     1.0000    -0.0684     1.1023     1.1023    -0.0000
 41 H      1.0684     1.0000    -0.0684     1.1023     1.1023    -0.0000
 42 H      0.8160     1.0000     0.1840     1.0469     1.0469    -0.0000
 43 H      0.8160     1.0000     0.1840     1.0469     1.0469    -0.0000
 44 H      0.9880     1.0000     0.0120     1.1409     1.1409    -0.0000
 45 H      0.9880     1.0000     0.0120     1.1409     1.1409     0.0000
 46 H      1.0497     1.0000    -0.0497     1.0138     1.0138    -0.0000
 47 H      1.0497     1.0000    -0.0497     1.0138     1.0138    -0.0000
 48 H      1.0582     1.0000    -0.0582     1.0291     1.0291    -0.0000
 49 H      1.0582     1.0000    -0.0582     1.0291     1.0291    -0.0000
 50 H      1.0541     1.0000    -0.0541     1.0211     1.0211    -0.0000
 51 H      1.0541     1.0000    -0.0541     1.0211     1.0211     0.0000
 52 H      1.0658     1.0000    -0.0658     0.9978     0.9978     0.0000
 53 H      1.0658     1.0000    -0.0658     0.9978     0.9978    -0.0000
 54 H      1.0345     1.0000    -0.0345     1.0310     1.0310    -0.0000
 55 H      1.0345     1.0000    -0.0345     1.0310     1.0310     0.0000
 56 H      1.0533     1.0000    -0.0533     1.0491     1.0491     0.0000
 57 H      1.0533     1.0000    -0.0533     1.0491     1.0491    -0.0000
 58 H      1.0298     1.0000    -0.0298     1.0750     1.0750     0.0000
 59 H      1.0298     1.0000    -0.0298     1.0750     1.0750     0.0000
 60 H      0.9813     1.0000     0.0187     1.0481     1.0481     0.0000
 61 H      0.9813     1.0000     0.0187     1.0481     1.0481    -0.0000
 62 H      1.0383     1.0000    -0.0383     1.0688     1.0688     0.0000
 63 H      1.0383     1.0000    -0.0383     1.0688     1.0688    -0.0000
 64 H      1.0254     1.0000    -0.0254     1.0265     1.0265     0.0000
 65 H      1.0254     1.0000    -0.0254     1.0265     1.0265    -0.0000
 66 N      7.3149     7.0000    -0.3149     3.2306     3.2306    -0.0000
 67 N      7.3149     7.0000    -0.3149     3.2306     3.2306    -0.0000
 68 H      1.0462     1.0000    -0.0462     0.9999     0.9999    -0.0000
 69 H      1.0462     1.0000    -0.0462     0.9999     0.9999    -0.0000
 70 C      5.7139     6.0000     0.2861     3.7907     3.7907    -0.0000
 71 C      5.7139     6.0000     0.2861     3.7907     3.7907     0.0000
 72 C      5.9462     6.0000     0.0538     4.5078     4.5078     0.0000
 73 C      5.9462     6.0000     0.0538     4.5078     4.5078    -0.0000
 74 N      7.0518     7.0000    -0.0518     3.4139     3.4139    -0.0000
 75 N      7.0518     7.0000    -0.0518     3.4140     3.4140    -0.0000
 76 C      5.8653     6.0000     0.1347     3.8989     3.8989     0.0000
 77 C      5.7569     6.0000     0.2431     4.0388     4.0388    -0.0000
 78 C      5.7570     6.0000     0.2430     4.0388     4.0388    -0.0000
 79 C      5.8654     6.0000     0.1346     3.8989     3.8989     0.0000
 80 H      1.0446     1.0000    -0.0446     1.0258     1.0258     0.0000
 81 H      1.0227     1.0000    -0.0227     1.0192     1.0192     0.0000
 82 H      1.0430     1.0000    -0.0430     1.0803     1.0803    -0.0000
 83 H      1.0430     1.0000    -0.0430     1.0803     1.0803    -0.0000
 84 H      1.0227     1.0000    -0.0227     1.0191     1.0191    -0.0000
 85 H      1.0446     1.0000    -0.0446     1.0258     1.0258    -0.0000
 86 O      8.1986     8.0000    -0.1986     2.3316     2.3316     0.0000
 87 O      8.2441     8.0000    -0.2441     2.2495     2.2495     0.0000
 88 O      8.2439     8.0000    -0.2439     2.2498     2.2498    -0.0000
 89 O      8.1989     8.0000    -0.1989     2.3313     2.3313    -0.0000
 90 C      5.8134     6.0000     0.1866     4.0288     4.0288    -0.0000
 91 C      5.9309     6.0000     0.0691     3.9045     3.9045    -0.0000
 92 C      5.9309     6.0000     0.0691     3.9046     3.9046    -0.0000
 93 C      5.8134     6.0000     0.1866     4.0288     4.0288     0.0000
 94 C      5.8752     6.0000     0.1248     3.9681     3.9681     0.0000
 95 H      1.0526     1.0000    -0.0526     1.0307     1.0307     0.0000
 96 N      7.1763     7.0000    -0.1763     3.0988     3.0988    -0.0000
 97 H      1.0549     1.0000    -0.0549     1.0246     1.0246    -0.0000
 98 H      1.0549     1.0000    -0.0549     1.0246     1.0246    -0.0000
 99 N      7.1763     7.0000    -0.1763     3.0988     3.0988    -0.0000
100 H      1.0526     1.0000    -0.0526     1.0307     1.0307    -0.0000
101 C      5.8752     6.0000     0.1248     3.9681     3.9681     0.0000
102 H      1.0494     1.0000    -0.0494     1.0094     1.0094    -0.0000
103 N      7.1678     7.0000    -0.1678     3.0863     3.0863    -0.0000
104 C      5.8949     6.0000     0.1051     3.9746     3.9746    -0.0000
105 C      5.8949     6.0000     0.1051     3.9746     3.9746    -0.0000
106 N      7.1678     7.0000    -0.1678     3.0863     3.0863    -0.0000
107 H      1.0494     1.0000    -0.0494     1.0094     1.0094    -0.0000
108 H      1.0703     1.0000    -0.0703     0.9965     0.9965     0.0000
109 H      1.0703     1.0000    -0.0703     0.9965     0.9965    -0.0000
110 H      1.0736     1.0000    -0.0736     0.9955     0.9955     0.0000
111 H      1.0736     1.0000    -0.0736     0.9955     0.9955    -0.0000
112 H      0.8060     1.0000     0.1940     0.9747     0.9747    -0.0000
113 H      0.8061     1.0000     0.1939     0.9747     0.9747    -0.0000

  Mayer bond orders larger than 0.100000
B(  0-Zn,  2-O ) :   0.4534 B(  0-Zn,  4-O ) :   0.4677 B(  0-Zn, 10-N ) :   0.4354 
B(  0-Zn, 66-N ) :   0.5028 B(  1-Zn,  3-O ) :   0.4535 B(  1-Zn,  5-O ) :   0.4676 
B(  1-Zn, 11-N ) :   0.4354 B(  1-Zn, 67-N ) :   0.5028 B(  2-O , 24-C ) :   1.3386 
B(  2-O , 44-H ) :   0.1288 B(  3-O , 25-C ) :   1.3387 B(  3-O , 45-H ) :   0.1288 
B(  4-O , 34-C ) :   1.4021 B(  5-O , 35-C ) :   1.4020 B(  6-O , 24-C ) :   1.7843 
B(  6-O , 41-H ) :   0.1070 B(  7-O , 25-C ) :   1.7842 B(  7-O , 40-H ) :   0.1070 
B(  8-O , 34-C ) :   1.7812 B(  9-O , 35-C ) :   1.7813 B( 10-N , 18-C ) :   1.4987 
B( 10-N , 22-C ) :   1.2686 B( 11-N , 19-C ) :   1.4987 B( 11-N , 23-C ) :   1.2686 
B( 12-N , 28-C ) :   1.5217 B( 12-N , 32-C ) :   1.4255 B( 13-N , 29-C ) :   1.5216 
B( 13-N , 33-C ) :   1.4255 B( 14-N , 18-C ) :   1.2801 B( 14-N , 20-C ) :   1.1838 
B( 14-N ,112-H ) :   0.9034 B( 15-N , 19-C ) :   1.2801 B( 15-N , 21-C ) :   1.1838 
B( 15-N ,113-H ) :   0.9034 B( 16-N , 28-C ) :   1.2539 B( 16-N , 30-C ) :   1.2331 
B( 16-N , 44-H ) :   0.9527 B( 17-N , 29-C ) :   1.2539 B( 17-N , 31-C ) :   1.2331 
B( 17-N , 45-H ) :   0.9527 B( 18-C , 38-H ) :   0.9912 B( 19-C , 39-H ) :   0.9912 
B( 20-C , 22-C ) :   1.5836 B( 20-C , 68-H ) :   1.0075 B( 21-C , 23-C ) :   1.5836 
B( 21-C , 69-H ) :   1.0075 B( 22-C , 50-H ) :   1.0162 B( 23-C , 51-H ) :   1.0162 
B( 24-C , 26-C ) :   1.0295 B( 25-C , 27-C ) :   1.0295 B( 26-C , 54-H ) :   0.9026 
B( 26-C , 56-H ) :   0.9203 B( 26-C , 62-H ) :   0.9100 B( 27-C , 55-H ) :   0.9026 
B( 27-C , 57-H ) :   0.9203 B( 27-C , 63-H ) :   0.9100 B( 28-C , 40-H ) :   0.9737 
B( 29-C , 41-H ) :   0.9737 B( 30-C , 32-C ) :   1.3908 B( 30-C , 48-H ) :   1.0048 
B( 31-C , 33-C ) :   1.3908 B( 31-C , 49-H ) :   1.0048 B( 32-C , 52-H ) :   1.0140 
B( 33-C , 53-H ) :   1.0140 B( 34-C , 70-C ) :   1.0237 B( 35-C , 71-C ) :   1.0237 
B( 36-C , 58-H ) :   0.9326 B( 36-C , 60-H ) :   0.9179 B( 36-C , 64-H ) :   0.9301 
B( 36-C , 72-C ) :   0.8968 B( 37-C , 59-H ) :   0.9326 B( 37-C , 61-H ) :   0.9179 
B( 37-C , 65-H ) :   0.9301 B( 37-C , 73-C ) :   0.8968 B( 42-H , 74-N ) :   0.8474 
B( 43-H , 75-N ) :   0.8474 B( 46-H , 91-C ) :   1.0007 B( 47-H , 92-C ) :   1.0007 
B( 66-N , 76-C ) :   1.2954 B( 66-N , 77-C ) :   1.3268 B( 67-N , 78-C ) :   1.3269 
B( 67-N , 79-C ) :   1.2954 B( 70-C , 80-H ) :   0.9291 B( 70-C , 81-H ) :   0.9149 
B( 70-C , 82-H ) :   0.9234 B( 71-C , 83-H ) :   0.9234 B( 71-C , 84-H ) :   0.9149 
B( 71-C , 85-H ) :   0.9291 B( 72-C , 86-O ) :   1.8019 B( 72-C , 87-O ) :   1.6269 
B( 73-C , 88-O ) :   1.6270 B( 73-C , 89-O ) :   1.8018 B( 74-N , 90-C ) :   1.2596 
B( 74-N , 91-C ) :   1.2249 B( 75-N , 92-C ) :   1.2249 B( 75-N , 93-C ) :   1.2596 
B( 76-C , 94-C ) :   1.2870 B( 76-C , 95-H ) :   0.9914 B( 77-C , 96-N ) :   1.4456 
B( 77-C , 97-H ) :   0.9935 B( 78-C , 98-H ) :   0.9935 B( 78-C , 99-N ) :   1.4456 
B( 79-C ,100-H ) :   0.9914 B( 79-C ,101-C ) :   1.2871 B( 86-O , 87-O ) :   0.1998 
B( 88-O , 89-O ) :   0.1998 B( 90-C ,102-H ) :   0.9978 B( 90-C ,103-N ) :   1.5747 
B( 91-C ,104-C ) :   1.4429 B( 92-C ,105-C ) :   1.4429 B( 93-C ,106-N ) :   1.5747 
B( 93-C ,107-H ) :   0.9978 B( 94-C , 96-N ) :   1.5058 B( 94-C ,108-H ) :   1.0165 
B( 99-N ,101-C ) :   1.5058 B(101-C ,109-H ) :   1.0165 B(103-N ,104-C ) :   1.4096 
B(104-C ,110-H ) :   1.0147 B(105-C ,106-N ) :   1.4096 B(105-C ,111-H ) :   1.0147 


-------
TIMINGS
-------

Total SCF time: 0 days 1 hours 35 min 25 sec 

Total time                  ....    5725.300 sec
Sum of individual times     ....    5662.005 sec  ( 98.9%)

SCF preparation             ....       0.389 sec  (  0.0%)
Fock matrix formation       ....    5605.728 sec  ( 97.9%)
  Startup                   ....       0.201 sec  (  0.0% of F)
  Split-RI-J                ....    1150.705 sec  ( 20.5% of F)
  Chain of spheres X        ....    4180.479 sec  ( 74.6% of F)
  XC integration            ....     334.953 sec  (  6.0% of F)
    XC Preparation          ....       0.000 sec  (  0.0% of XC)
    Basis function eval.    ....     156.861 sec  ( 46.8% of XC)
    Density eval.           ....     106.334 sec  ( 31.7% of XC)
    XC-Functional eval.     ....      13.996 sec  (  4.2% of XC)
    XC-Potential eval.      ....      48.939 sec  ( 14.6% of XC)
Diagonalization             ....       0.000 sec  (  0.0%)
Density matrix formation    ....       2.426 sec  (  0.0%)
Total Energy calculation    ....       0.678 sec  (  0.0%)
Population analysis         ....       0.493 sec  (  0.0%)
Orbital Transformation      ....       1.401 sec  (  0.0%)
Orbital Orthonormalization  ....       0.000 sec  (  0.0%)
DIIS solution               ....      40.544 sec  (  0.7%)
SOSCF solution              ....      10.347 sec  (  0.2%)
Finished LeanSCF after 5725.6 sec

Maximum memory used throughout the entire LEANSCF-calculation: 273.4 MB

-------------------------   --------------------
FINAL SINGLE POINT ENERGY     -6732.694212435384
-------------------------   --------------------


------------------------------------------------------------------------------
                              ORCA PROPERTY CALCULATIONS
------------------------------------------------------------------------------

GBWName                                 ... calc.gbw
Number of atoms                         ...    114
Number of basis functions               ...   1198
Max core memory                         ...   4096 MB

Electric properties:
Dipole moment                           ... YES
Quadrupole moment                       ...  NO
Static polarizability (Dipole/Dipole)   ...  NO
Static polarizability (Dipole/Quad.)    ...  NO
Static polarizability (Quad./Quad.)     ...  NO
Static polarizability (Velocity)        ...  NO
Static hyperpolarizability              ...  NO

Atomic electric properties:
Dipole moment                           ...  NO
Quadrupole moment                       ...  NO
Static polarizability                   ...  NO

Choice of electric origin               ... Center of mass
Position of electric origin             ...     6.380211     9.408611     7.151664

General magnetic properties:
Magnetizability                         ...  NO

EPR properties:
g-Tensor (aka g-matrix)                 ...  NO
Zero-Field splitting spin-orbit         ...  NO
Zero-field splitting spin-spin          ...  NO
Hyperfine couplings                     ...  NO (   0 nuclei)
Quadrupole couplings                    ...  NO (   0 nuclei)
Contact density                         ...  NO (   0 nuclei)

NMR properties:
Chemical shifts                         ...  NO (   0 nuclei)
Spin-rotation constants                 ...  NO (   0 nuclei)
Spin-spin couplings                     ...  NO (   0 nuclei,    0 pairs)

Choice of magnetic origin               ... GIAO
Position of magnetic origin             ...     0.000000     0.000000     0.000000

Properties with geometric perturbations:
SCF Hessian                             ...  NO
IR spectrum                             ...  NO
VCD spectrum                            ...  NO
X-ray spectroscopy properties:
SCF XES/XAS/RIXS spectra                ...  NO

SCF SOC stabilization energy            ...  NO
Diagonal Born-Oppenheimer correction    ...  NO

-------------
DIPOLE MOMENT
-------------

Method             : SCF
Type of density    : Electron Density
Multiplicity       :   1
Irrep              :   0
Energy             : -6732.6942124353836334 Eh
Basis              : AO
                                X                 Y                 Z
Electronic contribution:     -0.000468453       0.000688833      -0.001616159
Nuclear contribution   :      0.000000912      -0.000000295      -0.000003466
                        -----------------------------------------
Total Dipole Moment    :     -0.000467540       0.000688538      -0.001619626
                        -----------------------------------------
Magnitude (a.u.)       :      0.001820952
Magnitude (Debye)      :      0.004628492



--------------------
Rotational spectrum 
--------------------
 
Rotational constants in cm-1:             0.001256             0.000825             0.000736 
Rotational constants in MHz :            37.665941            24.727825            22.065497 

Dipole components along the rotational axes: 
x,y,z [a.u.] :    -0.000378    -0.001726     0.000441 
x,y,z [Debye]:    -0.000961    -0.004387     0.001120 

 

Dipole moment calculation done in   0.1 sec 

Maximum memory used throughout the entire PROP-calculation: 157.9 MB

--------------------------------
SUGGESTED CITATIONS FOR THIS RUN
--------------------------------

Below you find a list of papers that are relevant to this ORCA run
We neither can nor want to force you to cite these papers, but we appreciate if you do
You receive ORCA, which is the product of decades of hard work by many enthusiastic individuals, for free
The only thing we kindly ask in return is that you cite our papers,
We deeply appreciate it, if you show your appreciation for ORCA by not just citing the generic ORCA reference.

Please note that relegating all ORCA citations to the supporting information does *not* help us.
SI sections are not indexed - citations you put there will not count into any citation statistics
But we need these citations in order to attract the funding resources that allow us to do what we are doing

Therefore, if you are a happy ORCA user, please consider citing a few of the papers listed below in the main body of your paper

In addition to the list printed below, the program has created the file calc.bibtex that contains the list in bibtex format
You can import this file easily into all common literature databanks and citation aid programs


List of essential papers. We consider these as the minimum necessary citations

  1. Neese, F.
     Software update: the ORCA program system, version 6.0
     WIRES Comput. Molec. Sci. 2025 15(1), e70019
     doi.org/10.1002/wcms.7019

List of papers to cite with high priority. The work reported in these papers was absolutely
necessary for this run to complete.
Our perspective: the developers of density functionals and basis sets usually get cited in chemistry papers
Good! But without the algorithms to do something with them, the functionals or basis sets would not do anything.
Hence, in our opinion, the algorithm design and method developments papers are equally worthy of getting cited

  1. Neese, F.
     An improvement of the resolution of the identity approximation for the formation of the Coulomb matrix
     J. Comp. Chem. 2003 24(14), 1740-1747
     doi.org/10.1002/jcc.10318
  2. Neese, F.; Wennmohs, F.; Hansen, A.; Becker, U.
     Efficient, approximate and parallel Hartree-Fock and hybrid DFT calculations. A 'chain-of-spheres' algorithm for the Hartree-Fock exchange
     Chem. Phys. 2009 356(1-3), 98-109
     doi.org/10.1016/j.chemphys.2008.10.036
  3. Helmich-Paris, B.; de Souza, B.; Neese, F.; Izsák, R.
     An improved chain of spheres for exchange algorithm
     J. Chem. Phys. 2021 155(10), 104109
     doi.org/10.1063/5.0058766
  4. Neese, F.
     The SHARK Integral Generation and Digestion System
     J. Comp. Chem. 2022 44(3), 381
     doi.org/10.1002/jcc.26942

List of suggested additional citations. These are papers that are important in the 'surrounding' of 
of this run, or papers that preceded the highly important papers. If you like your results we are grateful for a citation.

  1. Izsak, R.; Neese, F.
     An overlap fitted chain of spheres exchange method
     J. Chem. Phys. 2011 135 , 144105
     doi.org/10.1063/1.3646921
  2. Izsak, R.; Hansen, A.; Neese, F.
     The resolution of identity and chain of spheres approximations for the LPNO-CCSD singles Fock term
     Molec. Phys. 2012 110 , 2413-2417
     doi.org/10.1080/00268976.2012.687466
  3. Neese, F.
     The ORCA program system
     WIRES Comput. Molec. Sci. 2012 2(1), 73-78
     doi.org/10.1002/wcms.81
  4. Izsak, R.; Neese, F.; Klopper, W.
     Robust fitting techniques in the chain of spheres approximation to the Fock exchange: The role of the complementary space
     J. Chem. Phys. 2013 139 , 
     doi.org/10.1063/1.4819264
  5. Neese, F.
     Software update: the ORCA program system, version 4.0
     WIRES Comput. Molec. Sci. 2018 8(1), 1-6
     doi.org/10.1002/wcms.1327
  6. Neese, F.; Wennmohs, F.; Becker, U.; Riplinger, C.
     The ORCA quantum chemistry program package
     J. Chem. Phys. 2020 152(22), 224108
     doi.org/10.1063/5.0004608
  7. Neese, F.
     Software update: The ORCA program system—Version 5.0
     WIRES Comput. Molec. Sci. 2022 12(1), e1606
     doi.org/10.1002/wcms.1606

List of optional additional citations

  1. Neese, F.
     Approximate second-order SCF convergence for spin unrestricted wavefunctions
     Chem. Phys. Lett. 2000 325(1-3), 93-98
     doi.org/10.1016/s0009-2614(00)00662-x

Timings for individual modules:

Sum of individual times          ...     5781.561 sec (=  96.359 min)
Startup calculation              ...       33.937 sec (=   0.566 min)   0.6 %
SCF iterations                   ...     5746.639 sec (=  95.777 min)  99.4 %
Property calculations            ...        0.984 sec (=   0.016 min)   0.0 %
                             ****ORCA TERMINATED NORMALLY****
TOTAL RUN TIME: 0 days 1 hours 36 minutes 23 seconds 314 msec
